! TOUCHSTONE file generated by CST MICROWAVE STUDIO
! Date and time: Wed Mar  5 01:27:06 2025
! Project name: CylCav_PrototypeEasier_Gap1.5.cst
! Parameters = {Cond_Cu=1e+09; d=200; gap=1.5; lhot1=0.9; lhot2=-3; lprobe=7; r=12.75; rblend=2; rblend2=1.5; rin=0.635; rout=2.05; xThick=6.25; yThick=2; zThick=7}
! Header version: 2024
! Port assignment regex: !\s*Touchstone port\s*([0-9]+)\s*=\s*(CST MWS port|CST DES external port|CST DES block port)\s*(.+)\s* \(\"(.*)\"\)(\s*mode\s*([0-9]+))?.*
! Touchstone port assignment:
! Touchstone port 1 = CST MWS port 1 ("")
! Touchstone port 2 = CST MWS port 2 ("")
# GHz S MA R 50
8.66                 0.995730195     -176.554794    0.00215845813      149.103486    0.00215845813      149.103486      0.996402626     -53.2158446
8.66001              0.995730187     -176.556028    0.00215879683      149.104261    0.00215879683      149.104261      0.996402623     -53.2163507
8.66002               0.99573018     -176.557263    0.00215913575      149.105036    0.00215913575      149.105036      0.996402619     -53.2168567
8.66003              0.995730172     -176.558498    0.00215947487      149.105811    0.00215947487      149.105811      0.996402616     -53.2173628
8.66004              0.995730165     -176.559733    0.00215981419      149.106586    0.00215981419      149.106586      0.996402613     -53.2178689
8.66005              0.995730157     -176.560969    0.00216015372       149.10736    0.00216015372       149.10736       0.99640261      -53.218375
8.66006              0.995730149     -176.562205    0.00216049346      149.108135    0.00216049346      149.108135      0.996402606      -53.218881
8.66007              0.995730142     -176.563441     0.0021608334      149.108909     0.0021608334      149.108909      0.996402603     -53.2193871
8.66008              0.995730134     -176.564678    0.00216117355      149.109684    0.00216117355      149.109684        0.9964026     -53.2198932
8.66009              0.995730126     -176.565916    0.00216151391      149.110458    0.00216151391      149.110458      0.996402597     -53.2203993
8.6601               0.995730118     -176.567153    0.00216185447      149.111232    0.00216185447      149.111232      0.996402593     -53.2209053
8.66011              0.995730111     -176.568391    0.00216219524      149.112006    0.00216219524      149.112006       0.99640259     -53.2214114
8.66012              0.995730103      -176.56963    0.00216253622       149.11278    0.00216253622       149.11278      0.996402587     -53.2219175
8.66013              0.995730095     -176.570869    0.00216287741      149.113554    0.00216287741      149.113554      0.996402583     -53.2224236
8.66014              0.995730087     -176.572108    0.00216321881      149.114328    0.00216321881      149.114328       0.99640258     -53.2229296
8.66015              0.995730079     -176.573348    0.00216356041      149.115102    0.00216356041      149.115102      0.996402577     -53.2234357
8.66016              0.995730071     -176.574588    0.00216390222      149.115875    0.00216390222      149.115875      0.996402574     -53.2239418
8.66017              0.995730063     -176.575829    0.00216424425      149.116649    0.00216424425      149.116649       0.99640257     -53.2244479
8.66018              0.995730055     -176.577069    0.00216458648      149.117422    0.00216458648      149.117422      0.996402567      -53.224954
8.66019              0.995730047     -176.578311    0.00216492892      149.118196    0.00216492892      149.118196      0.996402564       -53.22546
8.6602               0.995730039     -176.579553    0.00216527156      149.118969    0.00216527156      149.118969      0.996402561     -53.2259661
8.66021              0.995730031     -176.580795    0.00216561442      149.119742    0.00216561442      149.119742      0.996402557     -53.2264722
8.66022              0.995730023     -176.582037    0.00216595749      149.120515    0.00216595749      149.120515      0.996402554     -53.2269783
8.66023              0.995730015      -176.58328    0.00216630077      149.121288    0.00216630077      149.121288      0.996402551     -53.2274843
8.66024              0.995730007     -176.584523    0.00216664426      149.122061    0.00216664426      149.122061      0.996402547     -53.2279904
8.66025              0.995729999     -176.585767    0.00216698796      149.122833    0.00216698796      149.122833      0.996402544     -53.2284965
8.66026              0.995729991     -176.587011    0.00216733187      149.123606    0.00216733187      149.123606      0.996402541     -53.2290026
8.66027              0.995729982     -176.588256    0.00216767599      149.124379    0.00216767599      149.124379      0.996402537     -53.2295087
8.66028              0.995729974     -176.589501    0.00216802033      149.125151    0.00216802033      149.125151      0.996402534     -53.2300147
8.66029              0.995729966     -176.590746    0.00216836487      149.125923    0.00216836487      149.125923      0.996402531     -53.2305208
8.6603               0.995729958     -176.591992    0.00216870963      149.126696    0.00216870963      149.126696      0.996402528     -53.2310269
8.66031              0.995729949     -176.593238    0.00216905459      149.127468    0.00216905459      149.127468      0.996402524      -53.231533
8.66032              0.995729941     -176.594485    0.00216939977       149.12824    0.00216939977       149.12824      0.996402521      -53.232039
8.66033              0.995729933     -176.595732    0.00216974517      149.129012    0.00216974517      149.129012      0.996402518     -53.2325451
8.66034              0.995729924     -176.596979    0.00217009077      149.129784    0.00217009077      149.129784      0.996402514     -53.2330512
8.66035              0.995729916     -176.598227    0.00217043659      149.130555    0.00217043659      149.130555      0.996402511     -53.2335573
8.66036              0.995729907     -176.599475    0.00217078262      149.131327    0.00217078262      149.131327      0.996402508     -53.2340634
8.66037              0.995729899     -176.600724    0.00217112887      149.132099    0.00217112887      149.132099      0.996402504     -53.2345694
8.66038               0.99572989     -176.601973    0.00217147532       149.13287    0.00217147532       149.13287      0.996402501     -53.2350755
8.66039              0.995729882     -176.603223      0.002171822      149.133642      0.002171822      149.133642      0.996402498     -53.2355816
8.6604               0.995729873     -176.604472    0.00217216888      149.134413    0.00217216888      149.134413      0.996402494     -53.2360877
8.66041              0.995729865     -176.605723    0.00217251598      149.135184    0.00217251598      149.135184      0.996402491     -53.2365938
8.66042              0.995729856     -176.606974     0.0021728633      149.135955     0.0021728633      149.135955      0.996402488     -53.2370998
8.66043              0.995729847     -176.608225    0.00217321083      149.136726    0.00217321083      149.136726      0.996402484     -53.2376059
8.66044              0.995729839     -176.609476    0.00217355857      149.137497    0.00217355857      149.137497      0.996402481      -53.238112
8.66045               0.99572983     -176.610728    0.00217390653      149.138268    0.00217390653      149.138268      0.996402478     -53.2386181
8.66046              0.995729821      -176.61198     0.0021742547      149.139039     0.0021742547      149.139039      0.996402474     -53.2391242
8.66047              0.995729812     -176.613233     0.0021746031      149.139809     0.0021746031      149.139809      0.996402471     -53.2396303
8.66048              0.995729804     -176.614486     0.0021749517       149.14058     0.0021749517       149.14058      0.996402468     -53.2401363
8.66049              0.995729795      -176.61574    0.00217530052       149.14135    0.00217530052       149.14135      0.996402464     -53.2406424
8.6605               0.995729786     -176.616994    0.00217564956      149.142121    0.00217564956      149.142121      0.996402461     -53.2411485
8.66051              0.995729777     -176.618249    0.00217599882      149.142891    0.00217599882      149.142891      0.996402458     -53.2416546
8.66052              0.995729768     -176.619503    0.00217634829      149.143661    0.00217634829      149.143661      0.996402454     -53.2421607
8.66053              0.995729759     -176.620759    0.00217669798      149.144431    0.00217669798      149.144431      0.996402451     -53.2426667
8.66054               0.99572975     -176.622014    0.00217704789      149.145201    0.00217704789      149.145201      0.996402448     -53.2431728
8.66055              0.995729741      -176.62327    0.00217739801      149.145971    0.00217739801      149.145971      0.996402444     -53.2436789
8.66056              0.995729732     -176.624527    0.00217774835      149.146741    0.00217774835      149.146741      0.996402441      -53.244185
8.66057              0.995729723     -176.625784    0.00217809891       149.14751    0.00217809891       149.14751      0.996402438     -53.2446911
8.66058              0.995729714     -176.627041    0.00217844969       149.14828    0.00217844969       149.14828      0.996402434     -53.2451972
8.66059              0.995729705     -176.628299    0.00217880069      149.149049    0.00217880069      149.149049      0.996402431     -53.2457032
8.6606               0.995729696     -176.629557     0.0021791519      149.149819     0.0021791519      149.149819      0.996402428     -53.2462093
8.66061              0.995729687     -176.630816    0.00217950334      149.150588    0.00217950334      149.150588      0.996402424     -53.2467154
8.66062              0.995729678     -176.632075    0.00217985499      149.151357    0.00217985499      149.151357      0.996402421     -53.2472215
8.66063              0.995729668     -176.633335    0.00218020686      149.152126    0.00218020686      149.152126      0.996402417     -53.2477276
8.66064              0.995729659     -176.634594    0.00218055896      149.152895    0.00218055896      149.152895      0.996402414     -53.2482337
8.66065               0.99572965     -176.635855    0.00218091127      149.153664    0.00218091127      149.153664      0.996402411     -53.2487398
8.66066              0.995729641     -176.637116     0.0021812638      149.154433     0.0021812638      149.154433      0.996402407     -53.2492458
8.66067              0.995729631     -176.638377    0.00218161656      149.155202    0.00218161656      149.155202      0.996402404     -53.2497519
8.66068              0.995729622     -176.639638    0.00218196953       149.15597    0.00218196953       149.15597      0.996402401      -53.250258
8.66069              0.995729613       -176.6409    0.00218232272      149.156739    0.00218232272      149.156739      0.996402397     -53.2507641
8.6607               0.995729603     -176.642163    0.00218267614      149.157507    0.00218267614      149.157507      0.996402394     -53.2512702
8.66071              0.995729594     -176.643426    0.00218302978      149.158275    0.00218302978      149.158275       0.99640239     -53.2517763
8.66072              0.995729584     -176.644689    0.00218338364      149.159044    0.00218338364      149.159044      0.996402387     -53.2522824
8.66073              0.995729575     -176.645953    0.00218373772      149.159812    0.00218373772      149.159812      0.996402384     -53.2527884
8.66074              0.995729565     -176.647217    0.00218409202       149.16058    0.00218409202       149.16058       0.99640238     -53.2532945
8.66075              0.995729556     -176.648481    0.00218444654      149.161348    0.00218444654      149.161348      0.996402377     -53.2538006
8.66076              0.995729546     -176.649746    0.00218480129      149.162116    0.00218480129      149.162116      0.996402373     -53.2543067
8.66077              0.995729536     -176.651012    0.00218515626      149.162883    0.00218515626      149.162883       0.99640237     -53.2548128
8.66078              0.995729527     -176.652278    0.00218551146      149.163651    0.00218551146      149.163651      0.996402367     -53.2553189
8.66079              0.995729517     -176.653544    0.00218586687      149.164418    0.00218586687      149.164418      0.996402363      -53.255825
8.6608               0.995729507     -176.654811    0.00218622251      149.165186    0.00218622251      149.165186       0.99640236     -53.2563311
8.66081              0.995729498     -176.656078    0.00218657838      149.165953    0.00218657838      149.165953      0.996402356     -53.2568371
8.66082              0.995729488     -176.657346    0.00218693446       149.16672    0.00218693446       149.16672      0.996402353     -53.2573432
8.66083              0.995729478     -176.658614    0.00218729078      149.167488    0.00218729078      149.167488       0.99640235     -53.2578493
8.66084              0.995729468     -176.659882    0.00218764731      149.168255    0.00218764731      149.168255      0.996402346     -53.2583554
8.66085              0.995729458     -176.661151    0.00218800408      149.169022    0.00218800408      149.169022      0.996402343     -53.2588615
8.66086              0.995729448      -176.66242    0.00218836106      149.169788    0.00218836106      149.169788      0.996402339     -53.2593676
8.66087              0.995729439      -176.66369    0.00218871828      149.170555    0.00218871828      149.170555      0.996402336     -53.2598737
8.66088              0.995729429      -176.66496    0.00218907571      149.171322    0.00218907571      149.171322      0.996402333     -53.2603798
8.66089              0.995729419     -176.666231    0.00218943338      149.172088    0.00218943338      149.172088      0.996402329     -53.2608858
8.6609               0.995729409     -176.667502    0.00218979127      149.172855    0.00218979127      149.172855      0.996402326     -53.2613919
8.66091              0.995729399     -176.668773    0.00219014938      149.173621    0.00219014938      149.173621      0.996402322      -53.261898
8.66092              0.995729388     -176.670045    0.00219050772      149.174387    0.00219050772      149.174387      0.996402319     -53.2624041
8.66093              0.995729378     -176.671318    0.00219086629      149.175154    0.00219086629      149.175154      0.996402315     -53.2629102
8.66094              0.995729368     -176.672591    0.00219122509       149.17592    0.00219122509       149.17592      0.996402312     -53.2634163
8.66095              0.995729358     -176.673864    0.00219158411      149.176686    0.00219158411      149.176686      0.996402309     -53.2639224
8.66096              0.995729348     -176.675138    0.00219194337      149.177451    0.00219194337      149.177451      0.996402305     -53.2644285
8.66097              0.995729338     -176.676412    0.00219230284      149.178217    0.00219230284      149.178217      0.996402302     -53.2649346
8.66098              0.995729327     -176.677686    0.00219266255      149.178983    0.00219266255      149.178983      0.996402298     -53.2654407
8.66099              0.995729317     -176.678961    0.00219302249      149.179749    0.00219302249      149.179749      0.996402295     -53.2659467
8.661                0.995729307     -176.680237    0.00219338265      149.180514    0.00219338265      149.180514      0.996402291     -53.2664528
8.66101              0.995729297     -176.681513    0.00219374304      149.181279    0.00219374304      149.181279      0.996402288     -53.2669589
8.66102              0.995729286     -176.682789    0.00219410366      149.182045    0.00219410366      149.182045      0.996402284      -53.267465
8.66103              0.995729276     -176.684066    0.00219446452       149.18281    0.00219446452       149.18281      0.996402281     -53.2679711
8.66104              0.995729265     -176.685343     0.0021948256      149.183575     0.0021948256      149.183575      0.996402278     -53.2684772
8.66105              0.995729255      -176.68662    0.00219518691       149.18434    0.00219518691       149.18434      0.996402274     -53.2689833
8.66106              0.995729244     -176.687899    0.00219554845      149.185105    0.00219554845      149.185105      0.996402271     -53.2694894
8.66107              0.995729234     -176.689177    0.00219591022       149.18587    0.00219591022       149.18587      0.996402267     -53.2699955
8.66108              0.995729223     -176.690456    0.00219627222      149.186634    0.00219627222      149.186634      0.996402264     -53.2705016
8.66109              0.995729213     -176.691736    0.00219663445      149.187399    0.00219663445      149.187399       0.99640226     -53.2710077
8.6611               0.995729202     -176.693015    0.00219699692      149.188163    0.00219699692      149.188163      0.996402257     -53.2715138
8.66111              0.995729191     -176.694296    0.00219735961      149.188928    0.00219735961      149.188928      0.996402253     -53.2720199
8.66112              0.995729181     -176.695576    0.00219772254      149.189692    0.00219772254      149.189692       0.99640225      -53.272526
8.66113               0.99572917     -176.696858     0.0021980857      149.190456     0.0021980857      149.190456      0.996402246      -53.273032
8.66114              0.995729159     -176.698139    0.00219844909       149.19122    0.00219844909       149.19122      0.996402243     -53.2735381
8.66115              0.995729148     -176.699421    0.00219881271      149.191984    0.00219881271      149.191984       0.99640224     -53.2740442
8.66116              0.995729138     -176.700704    0.00219917657      149.192748    0.00219917657      149.192748      0.996402236     -53.2745503
8.66117              0.995729127     -176.701987    0.00219954065      149.193512    0.00219954065      149.193512      0.996402233     -53.2750564
8.66118              0.995729116      -176.70327    0.00219990498      149.194276    0.00219990498      149.194276      0.996402229     -53.2755625
8.66119              0.995729105     -176.704554    0.00220026953      149.195039    0.00220026953      149.195039      0.996402226     -53.2760686
8.6612               0.995729094     -176.705839    0.00220063432      149.195803    0.00220063432      149.195803      0.996402222     -53.2765747
8.66121              0.995729083     -176.707124    0.00220099934      149.196566    0.00220099934      149.196566      0.996402219     -53.2770808
8.66122              0.995729072     -176.708409     0.0022013646       149.19733     0.0022013646       149.19733      0.996402215     -53.2775869
8.66123              0.995729061     -176.709695    0.00220173009      149.198093    0.00220173009      149.198093      0.996402212      -53.278093
8.66124               0.99572905     -176.710981    0.00220209582      149.198856    0.00220209582      149.198856      0.996402208     -53.2785991
8.66125              0.995729039     -176.712267    0.00220246178      149.199619    0.00220246178      149.199619      0.996402205     -53.2791052
8.66126              0.995729028     -176.713554    0.00220282798      149.200382    0.00220282798      149.200382      0.996402201     -53.2796113
8.66127              0.995729017     -176.714842    0.00220319441      149.201145    0.00220319441      149.201145      0.996402198     -53.2801174
8.66128              0.995729006      -176.71613    0.00220356108      149.201907    0.00220356108      149.201907      0.996402194     -53.2806235
8.66129              0.995728994     -176.717418    0.00220392798       149.20267    0.00220392798       149.20267      0.996402191     -53.2811296
8.6613               0.995728983     -176.718707    0.00220429512      149.203433    0.00220429512      149.203433      0.996402187     -53.2816357
8.66131              0.995728972     -176.719996     0.0022046625      149.204195     0.0022046625      149.204195      0.996402184     -53.2821418
8.66132               0.99572896     -176.721286    0.00220503011      149.204957    0.00220503011      149.204957       0.99640218     -53.2826479
8.66133              0.995728949     -176.722577    0.00220539797       149.20572    0.00220539797       149.20572      0.996402177      -53.283154
8.66134              0.995728938     -176.723867    0.00220576605      149.206482    0.00220576605      149.206482      0.996402173     -53.2836601
8.66135              0.995728926     -176.725158    0.00220613438      149.207244    0.00220613438      149.207244       0.99640217     -53.2841662
8.66136              0.995728915      -176.72645    0.00220650295      149.208006    0.00220650295      149.208006      0.996402166     -53.2846723
8.66137              0.995728903     -176.727742    0.00220687175      149.208767    0.00220687175      149.208767      0.996402163     -53.2851784
8.66138              0.995728892     -176.729035    0.00220724079      149.209529    0.00220724079      149.209529      0.996402159     -53.2856845
8.66139               0.99572888     -176.730328    0.00220761007      149.210291    0.00220761007      149.210291      0.996402156     -53.2861906
8.6614               0.995728869     -176.731621    0.00220797959      149.211052    0.00220797959      149.211052      0.996402152     -53.2866967
8.66141              0.995728857     -176.732915    0.00220834935      149.211814    0.00220834935      149.211814      0.996402149     -53.2872028
8.66142              0.995728845     -176.734209    0.00220871935      149.212575    0.00220871935      149.212575      0.996402145     -53.2877089
8.66143              0.995728834     -176.735504    0.00220908958      149.213336    0.00220908958      149.213336      0.996402142      -53.288215
8.66144              0.995728822       -176.7368    0.00220946006      149.214097    0.00220946006      149.214097      0.996402138     -53.2887211
8.66145               0.99572881     -176.738095    0.00220983078      149.214859    0.00220983078      149.214859      0.996402134     -53.2892272
8.66146              0.995728799     -176.739392    0.00221020174      149.215619    0.00221020174      149.215619      0.996402131     -53.2897333
8.66147              0.995728787     -176.740688    0.00221057294       149.21638    0.00221057294       149.21638      0.996402127     -53.2902394
8.66148              0.995728775     -176.741986    0.00221094438      149.217141    0.00221094438      149.217141      0.996402124     -53.2907455
8.66149              0.995728763     -176.743283    0.00221131606      149.217902    0.00221131606      149.217902       0.99640212     -53.2912516
8.6615               0.995728751     -176.744581    0.00221168799      149.218662    0.00221168799      149.218662      0.996402117     -53.2917577
8.66151              0.995728739      -176.74588    0.00221206015      149.219423    0.00221206015      149.219423      0.996402113     -53.2922638
8.66152              0.995728727     -176.747179    0.00221243256      149.220183    0.00221243256      149.220183       0.99640211     -53.2927699
8.66153              0.995728715     -176.748478    0.00221280521      149.220943    0.00221280521      149.220943      0.996402106      -53.293276
8.66154              0.995728703     -176.749778    0.00221317811      149.221703    0.00221317811      149.221703      0.996402103     -53.2937821
8.66155              0.995728691     -176.751079    0.00221355125      149.222463    0.00221355125      149.222463      0.996402099     -53.2942882
8.66156              0.995728679      -176.75238    0.00221392463      149.223223    0.00221392463      149.223223      0.996402096     -53.2947943
8.66157              0.995728667     -176.753681    0.00221429825      149.223983    0.00221429825      149.223983      0.996402092     -53.2953004
8.66158              0.995728655     -176.754983    0.00221467212      149.224743    0.00221467212      149.224743      0.996402088     -53.2958065
8.66159              0.995728642     -176.756285    0.00221504623      149.225502    0.00221504623      149.225502      0.996402085     -53.2963126
8.6616                0.99572863     -176.757588    0.00221542059      149.226262    0.00221542059      149.226262      0.996402081     -53.2968187
8.66161              0.995728618     -176.758891    0.00221579519      149.227021    0.00221579519      149.227021      0.996402078     -53.2973248
8.66162              0.995728605     -176.760195    0.00221617004      149.227781    0.00221617004      149.227781      0.996402074     -53.2978309
8.66163              0.995728593     -176.761499    0.00221654513       149.22854    0.00221654513       149.22854      0.996402071      -53.298337
8.66164              0.995728581     -176.762804    0.00221692047      149.229299    0.00221692047      149.229299      0.996402067     -53.2988431
8.66165              0.995728568     -176.764109    0.00221729606      149.230058    0.00221729606      149.230058      0.996402063     -53.2993492
8.66166              0.995728556     -176.765415    0.00221767189      149.230817    0.00221767189      149.230817       0.99640206     -53.2998553
8.66167              0.995728543     -176.766721    0.00221804796      149.231576    0.00221804796      149.231576      0.996402056     -53.3003614
8.66168              0.995728531     -176.768027    0.00221842429      149.232335    0.00221842429      149.232335      0.996402053     -53.3008675
8.66169              0.995728518     -176.769334    0.00221880086      149.233093    0.00221880086      149.233093      0.996402049     -53.3013736
8.6617               0.995728506     -176.770642    0.00221917768      149.233852    0.00221917768      149.233852      0.996402046     -53.3018797
8.66171              0.995728493      -176.77195    0.00221955474       149.23461    0.00221955474       149.23461      0.996402042     -53.3023858
8.66172               0.99572848     -176.773259    0.00221993206      149.235368    0.00221993206      149.235368      0.996402038      -53.302892
8.66173              0.995728468     -176.774567    0.00222030962      149.236127    0.00222030962      149.236127      0.996402035     -53.3033981
8.66174              0.995728455     -176.775877    0.00222068743      149.236885    0.00222068743      149.236885      0.996402031     -53.3039042
8.66175              0.995728442     -176.777187    0.00222106549      149.237643    0.00222106549      149.237643      0.996402028     -53.3044103
8.66176              0.995728429     -176.778497     0.0022214438      149.238401     0.0022214438      149.238401      0.996402024     -53.3049164
8.66177              0.995728417     -176.779808    0.00222182236      149.239158    0.00222182236      149.239158       0.99640202     -53.3054225
8.66178              0.995728404      -176.78112    0.00222220116      149.239916    0.00222220116      149.239916      0.996402017     -53.3059286
8.66179              0.995728391     -176.782431    0.00222258022      149.240674    0.00222258022      149.240674      0.996402013     -53.3064347
8.6618               0.995728378     -176.783744    0.00222295953      149.241431    0.00222295953      149.241431       0.99640201     -53.3069408
8.66181              0.995728365     -176.785057    0.00222333909      149.242189    0.00222333909      149.242189      0.996402006     -53.3074469
8.66182              0.995728352      -176.78637     0.0022237189      149.242946     0.0022237189      149.242946      0.996402002      -53.307953
8.66183              0.995728339     -176.787684    0.00222409896      149.243703    0.00222409896      149.243703      0.996401999     -53.3084591
8.66184              0.995728326     -176.788998    0.00222447927       149.24446    0.00222447927       149.24446      0.996401995     -53.3089652
8.66185              0.995728313     -176.790313    0.00222485983      149.245217    0.00222485983      149.245217      0.996401992     -53.3094714
8.66186              0.995728299     -176.791628    0.00222524065      149.245974    0.00222524065      149.245974      0.996401988     -53.3099775
8.66187              0.995728286     -176.792944    0.00222562171      149.246731    0.00222562171      149.246731      0.996401984     -53.3104836
8.66188              0.995728273      -176.79426    0.00222600303      149.247488    0.00222600303      149.247488      0.996401981     -53.3109897
8.66189               0.99572826     -176.795577    0.00222638461      149.248244    0.00222638461      149.248244      0.996401977     -53.3114958
8.6619               0.995728246     -176.796894    0.00222676643      149.249001    0.00222676643      149.249001      0.996401974     -53.3120019
8.66191              0.995728233     -176.798211    0.00222714851      149.249757    0.00222714851      149.249757       0.99640197      -53.312508
8.66192               0.99572822      -176.79953    0.00222753085      149.250513    0.00222753085      149.250513      0.996401966     -53.3130141
8.66193              0.995728206     -176.800848    0.00222791343       149.25127    0.00222791343       149.25127      0.996401963     -53.3135202
8.66194              0.995728193     -176.802167    0.00222829627      149.252026    0.00222829627      149.252026      0.996401959     -53.3140264
8.66195              0.995728179     -176.803487    0.00222867937      149.252782    0.00222867937      149.252782      0.996401955     -53.3145325
8.66196              0.995728166     -176.804807    0.00222906272      149.253538    0.00222906272      149.253538      0.996401952     -53.3150386
8.66197              0.995728152     -176.806128    0.00222944633      149.254293    0.00222944633      149.254293      0.996401948     -53.3155447