! TOUCHSTONE file generated by CST MICROWAVE STUDIO
! Date and time: Tue Feb 23 14:44:44 2021
! Project name: h=5.58.cst
! Parameters = {cp=1; hl=0; bD=17; h=5.58; icl=0.1; inD=0.51; oD=2.2; rD=4; tD=1.68; vD=11}
! Header version: 2018
! Port assignment regex: !\s*Touchstone port\s*([0-9]+)\s*=\s*(CST MWS port|CST DS port)\s*([0-9]+|Zmin|Zmax)\s*\(\"(.*)\"\)(\s*mode\s*([0-9]+))?.*
! Touchstone port assignment:
! Touchstone port 1 = CST MWS port 1 ("")
! Touchstone port 2 = CST MWS port 2 ("")
# GHz S MA R 50
11.7575                 0.998966          88.301        0.0182481        -2.49993         0.018252        -2.50032         0.998921         88.2669
11.75751                0.998966         88.3006        0.0182493        -2.50107        0.0182532        -2.50153         0.998921         88.2665
11.75752                0.998965         88.3002        0.0182505        -2.50221        0.0182545        -2.50274         0.998921         88.2661
11.75753                0.998965         88.2998        0.0182517        -2.50335        0.0182557        -2.50395         0.998921         88.2657
11.75754                0.998965         88.2995        0.0182529        -2.50449        0.0182569        -2.50517          0.99892         88.2653
11.75755                0.998964         88.2991        0.0182541        -2.50563        0.0182582        -2.50638          0.99892         88.2649
11.75756                0.998964         88.2987        0.0182553        -2.50678        0.0182594         -2.5076          0.99892         88.2645
11.75757                0.998963         88.2983        0.0182565        -2.50792        0.0182606        -2.50881         0.998919         88.2641
11.75758                0.998963         88.2979        0.0182578        -2.50907        0.0182619        -2.51003         0.998919         88.2637
11.75759                0.998963         88.2975         0.018259        -2.51022        0.0182631        -2.51125         0.998919         88.2633
11.7576                 0.998962         88.2971        0.0182602        -2.51137        0.0182644        -2.51247         0.998919         88.2629
11.75761                0.998962         88.2967        0.0182614        -2.51252        0.0182656        -2.51369         0.998918         88.2626
11.75762                0.998962         88.2963        0.0182626        -2.51367        0.0182668        -2.51492         0.998918         88.2622
11.75763                0.998961         88.2959        0.0182638        -2.51482        0.0182681        -2.51614         0.998918         88.2618
11.75764                0.998961         88.2955         0.018265        -2.51597        0.0182693        -2.51737         0.998918         88.2614
11.75765                0.998961         88.2951        0.0182662        -2.51713        0.0182706        -2.51859         0.998917          88.261
11.75766                 0.99896         88.2947        0.0182675        -2.51828        0.0182718        -2.51982         0.998917         88.2606
11.75767                 0.99896         88.2944        0.0182687        -2.51944        0.0182731        -2.52105         0.998917         88.2602
11.75768                0.998959          88.294        0.0182699         -2.5206        0.0182743        -2.52228         0.998916         88.2598
11.75769                0.998959         88.2936        0.0182711        -2.52176        0.0182756        -2.52351         0.998916         88.2594
11.7577                 0.998959         88.2932        0.0182723        -2.52292        0.0182768        -2.52474         0.998916          88.259
11.75771                0.998958         88.2928        0.0182736        -2.52408        0.0182781        -2.52598         0.998916         88.2586
11.75772                0.998958         88.2924        0.0182748        -2.52524        0.0182793        -2.52721         0.998915         88.2582
11.75773                0.998958          88.292         0.018276        -2.52641        0.0182806        -2.52845         0.998915         88.2578
11.75774                0.998957         88.2916        0.0182772        -2.52757        0.0182819        -2.52969         0.998915         88.2575
11.75775                0.998957         88.2912        0.0182785        -2.52874        0.0182831        -2.53092         0.998914         88.2571
11.75776                0.998956         88.2908        0.0182797        -2.52991        0.0182844        -2.53216         0.998914         88.2567
11.75777                0.998956         88.2904        0.0182809        -2.53108        0.0182856        -2.53341         0.998914         88.2563
11.75778                0.998956           88.29        0.0182822        -2.53225        0.0182869        -2.53465         0.998914         88.2559
11.75779                0.998955         88.2896        0.0182834        -2.53342        0.0182882        -2.53589         0.998913         88.2555
11.7578                 0.998955         88.2892        0.0182846        -2.53459        0.0182894        -2.53714         0.998913         88.2551
11.75781                0.998955         88.2889        0.0182859        -2.53577        0.0182907        -2.53838         0.998913         88.2547
11.75782                0.998954         88.2885        0.0182871        -2.53694         0.018292        -2.53963         0.998912         88.2543
11.75783                0.998954         88.2881        0.0182884        -2.53812        0.0182933        -2.54088         0.998912         88.2539
11.75784                0.998953         88.2877        0.0182896         -2.5393        0.0182945        -2.54213         0.998912         88.2535
11.75785                0.998953         88.2873        0.0182908        -2.54048        0.0182958        -2.54338         0.998912         88.2531
11.75786                0.998953         88.2869        0.0182921        -2.54166        0.0182971        -2.54463         0.998911         88.2527
11.75787                0.998952         88.2865        0.0182933        -2.54284        0.0182983        -2.54588         0.998911         88.2523
11.75788                0.998952         88.2861        0.0182946        -2.54402        0.0182996        -2.54714         0.998911          88.252
11.75789                0.998952         88.2857        0.0182958        -2.54521        0.0183009        -2.54839          0.99891         88.2516
11.7579                 0.998951         88.2853        0.0182971        -2.54639        0.0183022        -2.54965          0.99891         88.2512
11.75791                0.998951         88.2849        0.0182983        -2.54758        0.0183035        -2.55091          0.99891         88.2508
11.75792                 0.99895         88.2845        0.0182996        -2.54877        0.0183047        -2.55217          0.99891         88.2504
11.75793                 0.99895         88.2841        0.0183008        -2.54996         0.018306        -2.55343         0.998909           88.25
11.75794                 0.99895         88.2837        0.0183021        -2.55115        0.0183073        -2.55469         0.998909         88.2496
11.75795                0.998949         88.2833        0.0183033        -2.55234        0.0183086        -2.55596         0.998909         88.2492
11.75796                0.998949         88.2829        0.0183046        -2.55353        0.0183099        -2.55722         0.998908         88.2488
11.75797                0.998949         88.2825        0.0183058        -2.55473        0.0183112        -2.55849         0.998908         88.2484
11.75798                0.998948         88.2822        0.0183071        -2.55593        0.0183125        -2.55975         0.998908          88.248
11.75799                0.998948         88.2818        0.0183084        -2.55712        0.0183138        -2.56102         0.998908         88.2476
11.758                  0.998947         88.2814        0.0183096        -2.55832        0.0183151        -2.56229         0.998907         88.2472
11.75801                0.998947          88.281        0.0183109        -2.55952        0.0183163        -2.56356         0.998907         88.2468
11.75802                0.998947         88.2806        0.0183121        -2.56072        0.0183176        -2.56484         0.998907         88.2464
11.75803                0.998946         88.2802        0.0183134        -2.56192        0.0183189        -2.56611         0.998906          88.246
11.75804                0.998946         88.2798        0.0183147        -2.56313        0.0183202        -2.56738         0.998906         88.2456
11.75805                0.998945         88.2794        0.0183159        -2.56433        0.0183215        -2.56866         0.998906         88.2452
11.75806                0.998945          88.279        0.0183172        -2.56554        0.0183228        -2.56994         0.998906         88.2449
11.75807                0.998945         88.2786        0.0183185        -2.56675        0.0183241        -2.57122         0.998905         88.2445
11.75808                0.998944         88.2782        0.0183197        -2.56796        0.0183254         -2.5725         0.998905         88.2441
11.75809                0.998944         88.2778         0.018321        -2.56917        0.0183268        -2.57378         0.998905         88.2437
11.7581                 0.998944         88.2774        0.0183223        -2.57038        0.0183281        -2.57506         0.998904         88.2433
11.75811                0.998943          88.277        0.0183236        -2.57159        0.0183294        -2.57635         0.998904         88.2429
11.75812                0.998943         88.2766        0.0183248         -2.5728        0.0183307        -2.57763         0.998904         88.2425
11.75813                0.998942         88.2762        0.0183261        -2.57402         0.018332        -2.57892         0.998903         88.2421
11.75814                0.998942         88.2758        0.0183274        -2.57524        0.0183333        -2.58021         0.998903         88.2417
11.75815                0.998942         88.2754        0.0183287        -2.57645        0.0183346        -2.58149         0.998903         88.2413
11.75816                0.998941          88.275          0.01833        -2.57767        0.0183359        -2.58279         0.998903         88.2409
11.75817                0.998941         88.2746        0.0183313         -2.5789        0.0183372        -2.58408         0.998902         88.2405
11.75818                 0.99894         88.2742        0.0183325        -2.58012        0.0183386        -2.58537         0.998902         88.2401
11.75819                 0.99894         88.2738        0.0183338        -2.58134        0.0183399        -2.58666         0.998902         88.2397
11.7582                  0.99894         88.2734        0.0183351        -2.58257        0.0183412        -2.58796         0.998901         88.2393
11.75821                0.998939         88.2731        0.0183364        -2.58379        0.0183425        -2.58926         0.998901         88.2389
11.75822                0.998939         88.2727        0.0183377        -2.58502        0.0183438        -2.59056         0.998901         88.2385
11.75823                0.998939         88.2723         0.018339        -2.58625        0.0183452        -2.59186           0.9989         88.2381
11.75824                0.998938         88.2719        0.0183403        -2.58748        0.0183465        -2.59316           0.9989         88.2377
11.75825                0.998938         88.2715        0.0183416        -2.58871        0.0183478        -2.59446           0.9989         88.2373
11.75826                0.998937         88.2711        0.0183429        -2.58994        0.0183491        -2.59576           0.9989         88.2369
11.75827                0.998937         88.2707        0.0183442        -2.59118        0.0183505        -2.59707         0.998899         88.2365
11.75828                0.998937         88.2703        0.0183455        -2.59241        0.0183518        -2.59838         0.998899         88.2361
11.75829                0.998936         88.2699        0.0183468        -2.59365        0.0183531        -2.59968         0.998899         88.2357
11.7583                 0.998936         88.2695        0.0183481        -2.59489        0.0183545        -2.60099         0.998898         88.2353
11.75831                0.998935         88.2691        0.0183494        -2.59613        0.0183558         -2.6023         0.998898          88.235
11.75832                0.998935         88.2687        0.0183507        -2.59737        0.0183572        -2.60362         0.998898         88.2346
11.75833                0.998935         88.2683         0.018352        -2.59861        0.0183585        -2.60493         0.998897         88.2342
11.75834                0.998934         88.2679        0.0183533        -2.59986        0.0183598        -2.60625         0.998897         88.2338
11.75835                0.998934         88.2675        0.0183546         -2.6011        0.0183612        -2.60756         0.998897         88.2334
11.75836                0.998933         88.2671        0.0183559        -2.60235        0.0183625        -2.60888         0.998896          88.233
11.75837                0.998933         88.2667        0.0183572         -2.6036        0.0183639         -2.6102         0.998896         88.2326
11.75838                0.998933         88.2663        0.0183585        -2.60485        0.0183652        -2.61152         0.998896         88.2322
11.75839                0.998932         88.2659        0.0183598         -2.6061        0.0183666        -2.61284         0.998895         88.2318
11.7584                 0.998932         88.2655        0.0183612        -2.60735        0.0183679        -2.61416         0.998895         88.2314
11.75841                0.998931         88.2651        0.0183625         -2.6086        0.0183692        -2.61549         0.998895          88.231
11.75842                0.998931         88.2647        0.0183638        -2.60986        0.0183706        -2.61681         0.998895         88.2306
11.75843                0.998931         88.2643        0.0183651        -2.61112         0.018372        -2.61814         0.998894         88.2302
11.75844                 0.99893         88.2639        0.0183664        -2.61237        0.0183733        -2.61947         0.998894         88.2298
11.75845                 0.99893         88.2635        0.0183678        -2.61363        0.0183747         -2.6208         0.998894         88.2294
11.75846                0.998929         88.2631        0.0183691        -2.61489         0.018376        -2.62213         0.998893          88.229
11.75847                0.998929         88.2627        0.0183704        -2.61616        0.0183774        -2.62346         0.998893         88.2286
11.75848                0.998929         88.2623        0.0183717        -2.61742        0.0183787         -2.6248         0.998893         88.2282
11.75849                0.998928         88.2619        0.0183731        -2.61869        0.0183801        -2.62613         0.998892         88.2278
11.7585                 0.998928         88.2615        0.0183744        -2.61995        0.0183815        -2.62747         0.998892         88.2274
11.75851                0.998927         88.2611        0.0183757        -2.62122        0.0183828        -2.62881         0.998892          88.227
11.75852                0.998927         88.2607        0.0183771        -2.62249        0.0183842        -2.63015         0.998891         88.2266
11.75853                0.998927         88.2603        0.0183784        -2.62376        0.0183856        -2.63149         0.998891         88.2262
11.75854                0.998926         88.2599        0.0183797        -2.62503        0.0183869        -2.63283         0.998891         88.2258
11.75855                0.998926         88.2595        0.0183811        -2.62631        0.0183883        -2.63418          0.99889         88.2254
11.75856                0.998925         88.2591        0.0183824        -2.62758        0.0183897        -2.63552          0.99889          88.225
11.75857                0.998925         88.2587        0.0183837        -2.62886         0.018391        -2.63687          0.99889         88.2246
11.75858                0.998925         88.2583        0.0183851        -2.63014        0.0183924        -2.63822         0.998889         88.2242
11.75859                0.998924         88.2579        0.0183864        -2.63142        0.0183938        -2.63957         0.998889         88.2238
11.7586                 0.998924         88.2575        0.0183878         -2.6327        0.0183952        -2.64092         0.998889         88.2234
11.75861                0.998923         88.2571        0.0183891        -2.63398        0.0183966        -2.64227         0.998888          88.223
11.75862                0.998923         88.2567        0.0183905        -2.63526        0.0183979        -2.64363         0.998888         88.2226
11.75863                0.998923         88.2563        0.0183918        -2.63655        0.0183993        -2.64499         0.998888         88.2222
11.75864                0.998922         88.2559        0.0183932        -2.63784        0.0184007        -2.64634         0.998888         88.2218
11.75865                0.998922         88.2555        0.0183945        -2.63912        0.0184021         -2.6477         0.998887         88.2214
11.75866                0.998921         88.2551        0.0183959        -2.64041        0.0184035        -2.64906         0.998887          88.221
11.75867                0.998921         88.2547        0.0183972        -2.64171        0.0184049        -2.65042         0.998887         88.2206
11.75868                0.998921         88.2543        0.0183986          -2.643        0.0184062        -2.65179         0.998886         88.2202
11.75869                 0.99892         88.2539        0.0183999        -2.64429        0.0184076        -2.65315         0.998886         88.2198
11.7587                  0.99892         88.2535        0.0184013        -2.64559         0.018409        -2.65452         0.998886         88.2194
11.75871                0.998919         88.2531        0.0184027        -2.64689        0.0184104        -2.65588         0.998885          88.219
11.75872                0.998919         88.2527         0.018404        -2.64818        0.0184118        -2.65725         0.998885         88.2186
11.75873                0.998918         88.2523        0.0184054        -2.64949        0.0184132        -2.65862         0.998885         88.2182
11.75874                0.998918         88.2519        0.0184067        -2.65079        0.0184146           -2.66         0.998884         88.2178
11.75875                0.998918         88.2515        0.0184081        -2.65209         0.018416        -2.66137         0.998884         88.2174
11.75876                0.998917         88.2511        0.0184095         -2.6534        0.0184174        -2.66275         0.998884          88.217
11.75877                0.998917         88.2507        0.0184109         -2.6547        0.0184188        -2.66412         0.998883         88.2166
11.75878                0.998916         88.2503        0.0184122        -2.65601        0.0184202         -2.6655         0.998883         88.2162
11.75879                0.998916         88.2499        0.0184136        -2.65732        0.0184216        -2.66688         0.998883         88.2158
11.7588                 0.998916         88.2495         0.018415        -2.65863         0.018423        -2.66826         0.998882         88.2154
11.75881                0.998915         88.2491        0.0184163        -2.65994        0.0184244        -2.66964         0.998882          88.215
11.75882                0.998915         88.2487        0.0184177        -2.66126        0.0184259        -2.67103         0.998882         88.2146
11.75883                0.998914         88.2483        0.0184191        -2.66257        0.0184273        -2.67241         0.998881         88.2142
11.75884                0.998914         88.2479        0.0184205        -2.66389        0.0184287         -2.6738         0.998881         88.2138
11.75885                0.998914         88.2475        0.0184219        -2.66521        0.0184301        -2.67519         0.998881         88.2134
11.75886                0.998913         88.2471        0.0184232        -2.66653        0.0184315        -2.67658          0.99888          88.213
11.75887                0.998913         88.2467        0.0184246        -2.66785        0.0184329        -2.67797          0.99888         88.2126
11.75888                0.998912         88.2463         0.018426        -2.66917        0.0184344        -2.67936          0.99888         88.2122
11.75889                0.998912         88.2459        0.0184274         -2.6705        0.0184358        -2.68076         0.998879         88.2118
11.7589                 0.998911         88.2455        0.0184288        -2.67182        0.0184372        -2.68215         0.998879         88.2114
11.75891                0.998911         88.2451        0.0184302        -2.67315        0.0184386        -2.68355         0.998879          88.211
11.75892                0.998911         88.2447        0.0184316        -2.67448          0.01844        -2.68495         0.998878         88.2106
11.75893                 0.99891         88.2443         0.018433        -2.67581        0.0184415        -2.68635         0.998878         88.2102
11.75894                 0.99891         88.2439        0.0184344        -2.67714        0.0184429        -2.68775         0.998877         88.2098
11.75895                0.998909         88.2435        0.0184358        -2.67848        0.0184443        -2.68916         0.998877         88.2094
11.75896                0.998909         88.2431        0.0184372        -2.67981        0.0184458        -2.69056         0.998877          88.209
11.75897                0.998908         88.2427        0.0184386        -2.68115        0.0184472        -2.69197         0.998876         88.2086
11.75898                0.998908         88.2423          0.01844        -2.68249        0.0184486        -2.69338         0.998876         88.2082
11.75899                0.998908         88.2419        0.0184414        -2.68383        0.0184501        -2.69479         0.998876         88.2078
11.759                  0.998907         88.2415        0.0184428        -2.68517        0.0184515         -2.6962         0.998875         88.2074
11.75901                0.998907         88.2411        0.0184442        -2.68652         0.018453        -2.69762         0.998875          88.207
11.75902                0.998906         88.2407        0.0184456        -2.68786        0.0184544        -2.69903         0.998875         88.2066
11.75903                0.998906         88.2403         0.018447        -2.68921        0.0184558        -2.70045         0.998874         88.2062
11.75904                0.998905         88.2399        0.0184484        -2.69056        0.0184573        -2.70187         0.998874         88.2057
11.75905                0.998905         88.2395        0.0184498        -2.69191        0.0184587        -2.70329         0.998874         88.2053
11.75906                0.998905         88.2391        0.0184512        -2.69326        0.0184602        -2.70471         0.998873         88.2049
11.75907                0.998904         88.2386        0.0184526        -2.69461        0.0184616        -2.70613         0.998873         88.2045
11.75908                0.998904         88.2382        0.0184541        -2.69597        0.0184631        -2.70755         0.998873         88.2041
11.75909                0.998903         88.2378        0.0184555        -2.69732        0.0184645        -2.70898         0.998872         88.2037
11.7591                 0.998903         88.2374        0.0184569        -2.69868         0.018466        -2.71041         0.998872         88.2033
11.75911                0.998902          88.237        0.0184583        -2.70004        0.0184674        -2.71184         0.998872         88.2029
11.75912                0.998902         88.2366        0.0184597         -2.7014        0.0184689        -2.71327         0.998871         88.2025
11.75913                0.998902         88.2362        0.0184612        -2.70277        0.0184704         -2.7147         0.998871         88.2021
11.75914                0.998901         88.2358        0.0184626        -2.70413        0.0184718        -2.71614         0.998871         88.2017
11.75915                0.998901         88.2354         0.018464         -2.7055        0.0184733        -2.71757          0.99887         88.2013
11.75916                  0.9989          88.235        0.0184654        -2.70687        0.0184748        -2.71901          0.99887         88.2009
11.75917                  0.9989         88.2346        0.0184669        -2.70823        0.0184762        -2.72045         0.998869         88.2005
11.75918                0.998899         88.2342        0.0184683        -2.70961        0.0184777        -2.72189         0.998869         88.2001
11.75919                0.998899         88.2338        0.0184697        -2.71098        0.0184792        -2.72333         0.998869         88.1997
11.7592                 0.998899         88.2334        0.0184712        -2.71235        0.0184806        -2.72478         0.998868         88.1993
11.75921                0.998898          88.233        0.0184726        -2.71373        0.0184821        -2.72622         0.998868         88.1989
11.75922                0.998898         88.2326        0.0184741        -2.71511        0.0184836        -2.72767         0.998868         88.1985
11.75923                0.998897         88.2322        0.0184755        -2.71649         0.018485        -2.72912         0.998867         88.1981
11.75924                0.998897         88.2318        0.0184769        -2.71787        0.0184865        -2.73057         0.998867         88.1977
11.75925                0.998896         88.2314        0.0184784        -2.71925         0.018488        -2.73202         0.998867         88.1973
11.75926                0.998896          88.231        0.0184798        -2.72064        0.0184895        -2.73347         0.998866         88.1969
11.75927                0.998896         88.2306        0.0184813        -2.72202         0.018491        -2.73493         0.998866         88.1965
11.75928                0.998895         88.2302        0.0184827        -2.72341        0.0184925        -2.73639         0.998865          88.196
11.75929                0.998895         88.2297        0.0184842         -2.7248        0.0184939        -2.73785         0.998865         88.1956
11.7593                 0.998894         88.2293        0.0184856        -2.72619        0.0184954        -2.73931         0.998865         88.1952
11.75931                0.998894         88.2289        0.0184871        -2.72758        0.0184969        -2.74077         0.998864         88.1948
11.75932                0.998893         88.2285        0.0184885        -2.72898        0.0184984        -2.74223         0.998864         88.1944
11.75933                0.998893         88.2281          0.01849        -2.73038        0.0184999         -2.7437         0.998864          88.194
11.75934                0.998892         88.2277        0.0184915        -2.73177        0.0185014        -2.74517         0.998863         88.1936
11.75935                0.998892         88.2273        0.0184929        -2.73317        0.0185029        -2.74663         0.998863         88.1932
11.75936                0.998892         88.2269        0.0184944        -2.73457        0.0185044        -2.74811         0.998863         88.1928
11.75937                0.998891         88.2265        0.0184958        -2.73598        0.0185059        -2.74958         0.998862         88.1924
11.75938                0.998891         88.2261        0.0184973        -2.73738        0.0185074        -2.75105         0.998862          88.192
11.75939                 0.99889         88.2257        0.0184988        -2.73879        0.0185089        -2.75253         0.998861         88.1916
11.7594                  0.99889         88.2253        0.0185002         -2.7402        0.0185104        -2.75401         0.998861         88.1912
11.75941                0.998889         88.2249        0.0185017        -2.74161        0.0185119        -2.75548         0.998861         88.1908
11.75942                0.998889         88.2245        0.0185032        -2.74302        0.0185134        -2.75697          0.99886         88.1904
11.75943                0.998888         88.2241        0.0185047        -2.74443        0.0185149        -2.75845          0.99886           88.19
11.75944                0.998888         88.2237        0.0185061        -2.74585        0.0185164        -2.75993          0.99886         88.1895
11.75945                0.998888         88.2232        0.0185076        -2.74727        0.0185179        -2.76142         0.998859         88.1891
11.75946                0.998887         88.2228        0.0185091        -2.74869        0.0185195        -2.76291         0.998859         88.1887
11.75947                0.998887         88.2224        0.0185106        -2.75011         0.018521         -2.7644         0.998858         88.1883
11.75948                0.998886          88.222         0.018512        -2.75153        0.0185225        -2.76589         0.998858         88.1879