! TOUCHSTONE file generated by CST MICROWAVE STUDIO
! Date and time: Wed Feb 24 11:16:14 2021
! Project name: h=5.58_TE013.cst
! Parameters = {bD=17; cp=1; h=5.58; hl=0; icl=0.1; inD=0.51; oD=2.2; rD=4; tD=1.68; vD=11}
! Header version: 2018
! Port assignment regex: !\s*Touchstone port\s*([0-9]+)\s*=\s*(CST MWS port|CST DS port)\s*([0-9]+|Zmin|Zmax)\s*\(\"(.*)\"\)(\s*mode\s*([0-9]+))?.*
! Touchstone port assignment:
! Touchstone port 1 = CST MWS port 1 ("")
! Touchstone port 2 = CST MWS port 2 ("")
# GHz S MA R 50
11.7575                 0.997465         88.5343        0.0180564        -1.95396        0.0180026        -2.11762         0.997465         88.3298
11.757505               0.997464         88.5341        0.0180569         -1.9544        0.0180031        -2.11804         0.997465         88.3296
11.75751                0.997464         88.5339        0.0180573        -1.95484        0.0180035        -2.11846         0.997465         88.3294
11.757515               0.997464         88.5337        0.0180578        -1.95527         0.018004        -2.11888         0.997465         88.3292
11.75752                0.997464         88.5335        0.0180583        -1.95571        0.0180045         -2.1193         0.997465          88.329
11.757525               0.997464         88.5333        0.0180588        -1.95615         0.018005        -2.11972         0.997465         88.3288
11.75753                0.997464         88.5331        0.0180592        -1.95659        0.0180055        -2.12014         0.997465         88.3286
11.757535               0.997464          88.533        0.0180597        -1.95703         0.018006        -2.12057         0.997465         88.3284
11.75754                0.997464         88.5328        0.0180602        -1.95747        0.0180065        -2.12099         0.997464         88.3283
11.757545               0.997464         88.5326        0.0180607        -1.95791         0.018007        -2.12141         0.997464         88.3281
11.75755                0.997464         88.5324        0.0180611        -1.95835        0.0180075        -2.12183         0.997464         88.3279
11.757555               0.997464         88.5322        0.0180616        -1.95879         0.018008        -2.12225         0.997464         88.3277
11.75756                0.997464          88.532        0.0180621        -1.95923        0.0180084        -2.12268         0.997464         88.3275
11.757565               0.997463         88.5318        0.0180626        -1.95967        0.0180089         -2.1231         0.997464         88.3273
11.75757                0.997463         88.5316        0.0180631        -1.96011        0.0180094        -2.12352         0.997464         88.3271
11.757575               0.997463         88.5315        0.0180635        -1.96055        0.0180099        -2.12395         0.997464         88.3269
11.75758                0.997463         88.5313         0.018064        -1.96099        0.0180104        -2.12437         0.997464         88.3267
11.757585               0.997463         88.5311        0.0180645        -1.96143        0.0180109        -2.12479         0.997464         88.3265
11.75759                0.997463         88.5309         0.018065        -1.96188        0.0180114        -2.12522         0.997464         88.3264
11.757595               0.997463         88.5307        0.0180654        -1.96232        0.0180119        -2.12564         0.997463         88.3262
11.7576                 0.997463         88.5305        0.0180659        -1.96276        0.0180124        -2.12607         0.997463          88.326
11.757605               0.997463         88.5303        0.0180664         -1.9632        0.0180129        -2.12649         0.997463         88.3258
11.75761                0.997463         88.5301        0.0180669        -1.96364        0.0180134        -2.12691         0.997463         88.3256
11.757615               0.997463         88.5299        0.0180674        -1.96408        0.0180139        -2.12734         0.997463         88.3254
11.75762                0.997463         88.5298        0.0180678        -1.96453        0.0180144        -2.12776         0.997463         88.3252
11.757625               0.997462         88.5296        0.0180683        -1.96497        0.0180148        -2.12819         0.997463          88.325
11.75763                0.997462         88.5294        0.0180688        -1.96541        0.0180153        -2.12861         0.997463         88.3248
11.757635               0.997462         88.5292        0.0180693        -1.96586        0.0180158        -2.12904         0.997463         88.3247
11.75764                0.997462          88.529        0.0180698         -1.9663        0.0180163        -2.12947         0.997463         88.3245
11.757645               0.997462         88.5288        0.0180702        -1.96674        0.0180168        -2.12989         0.997462         88.3243
11.75765                0.997462         88.5286        0.0180707        -1.96719        0.0180173        -2.13032         0.997462         88.3241
11.757655               0.997462         88.5284        0.0180712        -1.96763        0.0180178        -2.13074         0.997462         88.3239
11.75766                0.997462         88.5282        0.0180717        -1.96807        0.0180183        -2.13117         0.997462         88.3237
11.757665               0.997462         88.5281        0.0180722        -1.96852        0.0180188         -2.1316         0.997462         88.3235
11.75767                0.997462         88.5279        0.0180727        -1.96896        0.0180193        -2.13202         0.997462         88.3233
11.757675               0.997462         88.5277        0.0180731        -1.96941        0.0180198        -2.13245         0.997462         88.3231
11.75768                0.997461         88.5275        0.0180736        -1.96985        0.0180203        -2.13288         0.997462         88.3229
11.757685               0.997461         88.5273        0.0180741         -1.9703        0.0180208         -2.1333         0.997462         88.3228
11.75769                0.997461         88.5271        0.0180746        -1.97074        0.0180213        -2.13373         0.997462         88.3226
11.757695               0.997461         88.5269        0.0180751        -1.97119        0.0180218        -2.13416         0.997462         88.3224
11.7577                 0.997461         88.5267        0.0180756        -1.97163        0.0180223        -2.13458         0.997461         88.3222
11.757705               0.997461         88.5265         0.018076        -1.97208        0.0180228        -2.13501         0.997461          88.322
11.75771                0.997461         88.5264        0.0180765        -1.97252        0.0180233        -2.13544         0.997461         88.3218
11.757715               0.997461         88.5262         0.018077        -1.97297        0.0180238        -2.13587         0.997461         88.3216
11.75772                0.997461          88.526        0.0180775        -1.97341        0.0180243         -2.1363         0.997461         88.3214
11.757725               0.997461         88.5258         0.018078        -1.97386        0.0180248        -2.13673         0.997461         88.3212
11.75773                0.997461         88.5256        0.0180785        -1.97431        0.0180253        -2.13715         0.997461          88.321
11.757735               0.997461         88.5254        0.0180789        -1.97475        0.0180258        -2.13758         0.997461         88.3209
11.75774                 0.99746         88.5252        0.0180794         -1.9752        0.0180263        -2.13801         0.997461         88.3207
11.757745                0.99746          88.525        0.0180799        -1.97565        0.0180268        -2.13844         0.997461         88.3205
11.75775                 0.99746         88.5248        0.0180804        -1.97609        0.0180273        -2.13887          0.99746         88.3203
11.757755                0.99746         88.5247        0.0180809        -1.97654        0.0180278         -2.1393          0.99746         88.3201
11.75776                 0.99746         88.5245        0.0180814        -1.97699        0.0180283        -2.13973          0.99746         88.3199
11.757765                0.99746         88.5243        0.0180819        -1.97744        0.0180288        -2.14016          0.99746         88.3197
11.75777                 0.99746         88.5241        0.0180824        -1.97788        0.0180293        -2.14059          0.99746         88.3195
11.757775                0.99746         88.5239        0.0180828        -1.97833        0.0180298        -2.14102          0.99746         88.3193
11.75778                 0.99746         88.5237        0.0180833        -1.97878        0.0180303        -2.14145          0.99746         88.3191
11.757785                0.99746         88.5235        0.0180838        -1.97923        0.0180308        -2.14188          0.99746          88.319
11.75779                 0.99746         88.5233        0.0180843        -1.97968        0.0180313        -2.14231          0.99746         88.3188
11.757795               0.997459         88.5231        0.0180848        -1.98013        0.0180318        -2.14274          0.99746         88.3186
11.7578                 0.997459          88.523        0.0180853        -1.98058        0.0180323        -2.14317          0.99746         88.3184
11.757805               0.997459         88.5228        0.0180858        -1.98102        0.0180328        -2.14361         0.997459         88.3182
11.75781                0.997459         88.5226        0.0180863        -1.98147        0.0180333        -2.14404         0.997459          88.318
11.757815               0.997459         88.5224        0.0180867        -1.98192        0.0180338        -2.14447         0.997459         88.3178
11.75782                0.997459         88.5222        0.0180872        -1.98237        0.0180343         -2.1449         0.997459         88.3176
11.757825               0.997459          88.522        0.0180877        -1.98282        0.0180348        -2.14533         0.997459         88.3174
11.75783                0.997459         88.5218        0.0180882        -1.98327        0.0180353        -2.14576         0.997459         88.3172
11.757835               0.997459         88.5216        0.0180887        -1.98372        0.0180358         -2.1462         0.997459         88.3171
11.75784                0.997459         88.5214        0.0180892        -1.98417        0.0180363        -2.14663         0.997459         88.3169
11.757845               0.997459         88.5213        0.0180897        -1.98462        0.0180368        -2.14706         0.997459         88.3167
11.75785                0.997458         88.5211        0.0180902        -1.98508        0.0180373         -2.1475         0.997459         88.3165
11.757855               0.997458         88.5209        0.0180907        -1.98553        0.0180378        -2.14793         0.997458         88.3163
11.75786                0.997458         88.5207        0.0180912        -1.98598        0.0180383        -2.14836         0.997458         88.3161
11.757865               0.997458         88.5205        0.0180916        -1.98643        0.0180388         -2.1488         0.997458         88.3159
11.75787                0.997458         88.5203        0.0180921        -1.98688        0.0180393        -2.14923         0.997458         88.3157
11.757875               0.997458         88.5201        0.0180926        -1.98733        0.0180398        -2.14966         0.997458         88.3155
11.75788                0.997458         88.5199        0.0180931        -1.98778        0.0180404         -2.1501         0.997458         88.3153
11.757885               0.997458         88.5197        0.0180936        -1.98824        0.0180409        -2.15053         0.997458         88.3151
11.75789                0.997458         88.5195        0.0180941        -1.98869        0.0180414        -2.15097         0.997458          88.315
11.757895               0.997458         88.5194        0.0180946        -1.98914        0.0180419         -2.1514         0.997458         88.3148
11.7579                 0.997458         88.5192        0.0180951        -1.98959        0.0180424        -2.15183         0.997458         88.3146
11.757905               0.997458          88.519        0.0180956        -1.99005        0.0180429        -2.15227         0.997457         88.3144
11.75791                0.997457         88.5188        0.0180961         -1.9905        0.0180434         -2.1527         0.997457         88.3142
11.757915               0.997457         88.5186        0.0180966        -1.99095        0.0180439        -2.15314         0.997457          88.314
11.75792                0.997457         88.5184        0.0180971        -1.99141        0.0180444        -2.15358         0.997457         88.3138
11.757925               0.997457         88.5182        0.0180976        -1.99186        0.0180449        -2.15401         0.997457         88.3136
11.75793                0.997457          88.518        0.0180981        -1.99231        0.0180454        -2.15445         0.997457         88.3134
11.757935               0.997457         88.5178        0.0180986        -1.99277        0.0180459        -2.15488         0.997457         88.3132
11.75794                0.997457         88.5177        0.0180991        -1.99322        0.0180464        -2.15532         0.997457         88.3131
11.757945               0.997457         88.5175        0.0180995        -1.99368        0.0180469        -2.15576         0.997457         88.3129
11.75795                0.997457         88.5173           0.0181        -1.99413        0.0180475        -2.15619         0.997457         88.3127
11.757955               0.997457         88.5171        0.0181005        -1.99459         0.018048        -2.15663         0.997457         88.3125
11.75796                0.997457         88.5169         0.018101        -1.99504        0.0180485        -2.15707         0.997456         88.3123
11.757965               0.997456         88.5167        0.0181015         -1.9955         0.018049         -2.1575         0.997456         88.3121
11.75797                0.997456         88.5165         0.018102        -1.99595        0.0180495        -2.15794         0.997456         88.3119
11.757975               0.997456         88.5163        0.0181025        -1.99641          0.01805        -2.15838         0.997456         88.3117
11.75798                0.997456         88.5161         0.018103        -1.99686        0.0180505        -2.15882         0.997456         88.3115
11.757985               0.997456         88.5159        0.0181035        -1.99732         0.018051        -2.15925         0.997456         88.3113
11.75799                0.997456         88.5158         0.018104        -1.99778        0.0180515        -2.15969         0.997456         88.3111
11.757995               0.997456         88.5156        0.0181045        -1.99823        0.0180521        -2.16013         0.997456          88.311
11.758                  0.997456         88.5154         0.018105        -1.99869        0.0180526        -2.16057         0.997456         88.3108
11.758005               0.997456         88.5152        0.0181055        -1.99914        0.0180531        -2.16101         0.997456         88.3106
11.75801                0.997456          88.515         0.018106         -1.9996        0.0180536        -2.16145         0.997455         88.3104
11.758015               0.997456         88.5148        0.0181065        -2.00006        0.0180541        -2.16189         0.997455         88.3102
11.75802                0.997455         88.5146         0.018107        -2.00052        0.0180546        -2.16232         0.997455           88.31
11.758025               0.997455         88.5144        0.0181075        -2.00097        0.0180551        -2.16276         0.997455         88.3098
11.75803                0.997455         88.5142         0.018108        -2.00143        0.0180556         -2.1632         0.997455         88.3096
11.758035               0.997455         88.5141        0.0181085        -2.00189        0.0180562        -2.16364         0.997455         88.3094
11.75804                0.997455         88.5139         0.018109        -2.00235        0.0180567        -2.16408         0.997455         88.3092
11.758045               0.997455         88.5137        0.0181095        -2.00281        0.0180572        -2.16452         0.997455          88.309
11.75805                0.997455         88.5135          0.01811        -2.00326        0.0180577        -2.16496         0.997455         88.3089
11.758055               0.997455         88.5133        0.0181105        -2.00372        0.0180582         -2.1654         0.997455         88.3087
11.75806                0.997455         88.5131         0.018111        -2.00418        0.0180587        -2.16584         0.997454         88.3085
11.758065               0.997455         88.5129        0.0181115        -2.00464        0.0180592        -2.16629         0.997454         88.3083
11.75807                0.997455         88.5127         0.018112         -2.0051        0.0180598        -2.16673         0.997454         88.3081
11.758075               0.997454         88.5125        0.0181125        -2.00556        0.0180603        -2.16717         0.997454         88.3079
11.75808                0.997454         88.5123         0.018113        -2.00602        0.0180608        -2.16761         0.997454         88.3077
11.758085               0.997454         88.5122        0.0181135        -2.00648        0.0180613        -2.16805         0.997454         88.3075
11.75809                0.997454          88.512         0.018114        -2.00694        0.0180618        -2.16849         0.997454         88.3073
11.758095               0.997454         88.5118        0.0181145         -2.0074        0.0180623        -2.16893         0.997454         88.3071
11.7581                 0.997454         88.5116         0.018115        -2.00786        0.0180628        -2.16938         0.997454         88.3069
11.758105               0.997454         88.5114        0.0181155        -2.00832        0.0180634        -2.16982         0.997454         88.3068
11.75811                0.997454         88.5112         0.018116        -2.00878        0.0180639        -2.17026         0.997453         88.3066
11.758115               0.997454          88.511        0.0181165        -2.00924        0.0180644         -2.1707         0.997453         88.3064
11.75812                0.997454         88.5108         0.018117         -2.0097        0.0180649        -2.17115         0.997453         88.3062
11.758125               0.997454         88.5106        0.0181175        -2.01016        0.0180654        -2.17159         0.997453          88.306
11.75813                0.997453         88.5104         0.018118        -2.01063         0.018066        -2.17203         0.997453         88.3058
11.758135               0.997453         88.5103        0.0181185        -2.01109        0.0180665        -2.17248         0.997453         88.3056
11.75814                0.997453         88.5101        0.0181191        -2.01155         0.018067        -2.17292         0.997453         88.3054
11.758145               0.997453         88.5099        0.0181196        -2.01201        0.0180675        -2.17336         0.997453         88.3052
11.75815                0.997453         88.5097        0.0181201        -2.01247         0.018068        -2.17381         0.997453          88.305
11.758155               0.997453         88.5095        0.0181206        -2.01294        0.0180685        -2.17425         0.997453         88.3048
11.75816                0.997453         88.5093        0.0181211         -2.0134        0.0180691         -2.1747         0.997452         88.3047
11.758165               0.997453         88.5091        0.0181216        -2.01386        0.0180696        -2.17514         0.997452         88.3045
11.75817                0.997453         88.5089        0.0181221        -2.01433        0.0180701        -2.17559         0.997452         88.3043
11.758175               0.997453         88.5087        0.0181226        -2.01479        0.0180706        -2.17603         0.997452         88.3041
11.75818                0.997452         88.5085        0.0181231        -2.01525        0.0180711        -2.17648         0.997452         88.3039
11.758185               0.997452         88.5084        0.0181236        -2.01572        0.0180717        -2.17692         0.997452         88.3037
11.75819                0.997452         88.5082        0.0181241        -2.01618        0.0180722        -2.17737         0.997452         88.3035
11.758195               0.997452          88.508        0.0181246        -2.01664        0.0180727        -2.17781         0.997452         88.3033
11.7582                 0.997452         88.5078        0.0181251        -2.01711        0.0180732        -2.17826         0.997452         88.3031
11.758205               0.997452         88.5076        0.0181256        -2.01757        0.0180737        -2.17871         0.997452         88.3029
11.75821                0.997452         88.5074        0.0181261        -2.01804        0.0180743        -2.17915         0.997451         88.3027
11.758215               0.997452         88.5072        0.0181267         -2.0185        0.0180748         -2.1796         0.997451         88.3026
11.75822                0.997452          88.507        0.0181272        -2.01897        0.0180753        -2.18005         0.997451         88.3024
11.758225               0.997452         88.5068        0.0181277        -2.01943        0.0180758        -2.18049         0.997451         88.3022
11.75823                0.997452         88.5066        0.0181282         -2.0199        0.0180764        -2.18094         0.997451          88.302
11.758235               0.997451         88.5064        0.0181287        -2.02036        0.0180769        -2.18139         0.997451         88.3018
11.75824                0.997451         88.5063        0.0181292        -2.02083        0.0180774        -2.18184         0.997451         88.3016
11.758245               0.997451         88.5061        0.0181297         -2.0213        0.0180779        -2.18228         0.997451         88.3014
11.75825                0.997451         88.5059        0.0181302        -2.02176        0.0180785        -2.18273         0.997451         88.3012
11.758255               0.997451         88.5057        0.0181307        -2.02223         0.018079        -2.18318         0.997451          88.301
11.75826                0.997451         88.5055        0.0181312         -2.0227        0.0180795        -2.18363          0.99745         88.3008
11.758265               0.997451         88.5053        0.0181318        -2.02316          0.01808        -2.18408          0.99745         88.3006
11.75827                0.997451         88.5051        0.0181323        -2.02363        0.0180806        -2.18452          0.99745         88.3004
11.758275               0.997451         88.5049        0.0181328         -2.0241        0.0180811        -2.18497          0.99745         88.3003
11.75828                0.997451         88.5047        0.0181333        -2.02456        0.0180816        -2.18542          0.99745         88.3001
11.758285               0.997451         88.5045        0.0181338        -2.02503        0.0180821        -2.18587          0.99745         88.2999
11.75829                 0.99745         88.5044        0.0181343         -2.0255        0.0180827        -2.18632          0.99745         88.2997
11.758295                0.99745         88.5042        0.0181348        -2.02597        0.0180832        -2.18677          0.99745         88.2995
11.7583                  0.99745          88.504        0.0181353        -2.02644        0.0180837        -2.18722          0.99745         88.2993
11.758305                0.99745         88.5038        0.0181359        -2.02691        0.0180842        -2.18767          0.99745         88.2991
11.75831                 0.99745         88.5036        0.0181364        -2.02737        0.0180848        -2.18812         0.997449         88.2989
11.758315                0.99745         88.5034        0.0181369        -2.02784        0.0180853        -2.18857         0.997449         88.2987
11.75832                 0.99745         88.5032        0.0181374        -2.02831        0.0180858        -2.18902         0.997449         88.2985
11.758325                0.99745          88.503        0.0181379        -2.02878        0.0180863        -2.18947         0.997449         88.2983
11.75833                 0.99745         88.5028        0.0181384        -2.02925        0.0180869        -2.18992         0.997449         88.2981
11.758335                0.99745         88.5026        0.0181389        -2.02972        0.0180874        -2.19038         0.997449          88.298
11.75834                0.997449         88.5024        0.0181395        -2.03019        0.0180879        -2.19083         0.997449         88.2978
11.758345               0.997449         88.5023          0.01814        -2.03066        0.0180885        -2.19128         0.997449         88.2976
11.75835                0.997449         88.5021        0.0181405        -2.03113         0.018089        -2.19173         0.997449         88.2974
11.758355               0.997449         88.5019         0.018141         -2.0316        0.0180895        -2.19218         0.997448         88.2972
11.75836                0.997449         88.5017        0.0181415        -2.03207          0.01809        -2.19263         0.997448          88.297
11.758365               0.997449         88.5015         0.018142        -2.03254        0.0180906        -2.19309         0.997448         88.2968
11.75837                0.997449         88.5013        0.0181426        -2.03302        0.0180911        -2.19354         0.997448         88.2966
11.758375               0.997449         88.5011        0.0181431        -2.03349        0.0180916        -2.19399         0.997448         88.2964
11.75838                0.997449         88.5009        0.0181436        -2.03396        0.0180922        -2.19445         0.997448         88.2962
11.758385               0.997449         88.5007        0.0181441        -2.03443        0.0180927         -2.1949         0.997448          88.296
11.75839                0.997449         88.5005        0.0181446         -2.0349        0.0180932        -2.19535         0.997448         88.2958
11.758395               0.997448         88.5004        0.0181451        -2.03537        0.0180938        -2.19581         0.997448         88.2957
11.7584                 0.997448         88.5002        0.0181457        -2.03585        0.0180943        -2.19626         0.997448         88.2955
11.758405               0.997448            88.5        0.0181462        -2.03632        0.0180948        -2.19671         0.997447         88.2953
11.75841                0.997448         88.4998        0.0181467        -2.03679        0.0180954        -2.19717         0.997447         88.2951
11.758415               0.997448         88.4996        0.0181472        -2.03727        0.0180959        -2.19762         0.997447         88.2949
11.75842                0.997448         88.4994        0.0181477        -2.03774        0.0180964        -2.19808         0.997447         88.2947
11.758425               0.997448         88.4992        0.0181483        -2.03821        0.0180969        -2.19853         0.997447         88.2945
11.75843                0.997448          88.499        0.0181488        -2.03869        0.0180975        -2.19899         0.997447         88.2943
11.758435               0.997448         88.4988        0.0181493        -2.03916         0.018098        -2.19944         0.997447         88.2941
11.75844                0.997448         88.4986        0.0181498        -2.03963        0.0180985         -2.1999         0.997447         88.2939
11.758445               0.997447         88.4984        0.0181503        -2.04011        0.0180991        -2.20035         0.997447         88.2937
11.75845                0.997447         88.4983        0.0181509        -2.04058        0.0180996        -2.20081         0.997447         88.2935
11.758455               0.997447         88.4981        0.0181514        -2.04106        0.0181002        -2.20127         0.997446         88.2934
11.75846                0.997447         88.4979        0.0181519        -2.04153        0.0181007        -2.20172         0.997446         88.2932
11.758465               0.997447         88.4977        0.0181524        -2.04201        0.0181012        -2.20218         0.997446          88.293
11.75847                0.997447         88.4975        0.0181529        -2.04248        0.0181018        -2.20263         0.997446         88.2928
11.758475               0.997447         88.4973        0.0181535        -2.04296        0.0181023        -2.20309         0.997446         88.2926
11.75848                0.997447         88.4971         0.018154        -2.04343        0.0181028        -2.20355         0.997446         88.2924
11.758485               0.997447         88.4969        0.0181545        -2.04391        0.0181034        -2.20401         0.997446         88.2922
11.75849                0.997447         88.4967         0.018155        -2.04439        0.0181039        -2.20446         0.997446          88.292