! TOUCHSTONE file generated by CST MICROWAVE STUDIO
! Date and time: Wed Feb 24 10:54:48 2021
! Project name: h=5.58_TE013.cst
! Parameters = {bD=17; cp=1; h=5.58; hl=0; icl=0.1; inD=0.51; oD=2.2; rD=4; tD=1.68; vD=11}
! Header version: 2018
! Port assignment regex: !\s*Touchstone port\s*([0-9]+)\s*=\s*(CST MWS port|CST DS port)\s*([0-9]+|Zmin|Zmax)\s*\(\"(.*)\"\)(\s*mode\s*([0-9]+))?.*
! Touchstone port assignment:
! Touchstone port 1 = CST MWS port 1 ("")
! Touchstone port 2 = CST MWS port 2 ("")
# GHz S MA R 50
11.7575                 0.997466         88.5351        0.0179856         -2.1169        0.0180009        -2.10959         0.997435         88.3299
11.75751                0.997466         88.5347        0.0179866        -2.11775        0.0180019        -2.11044         0.997435         88.3295
11.75752                0.997465         88.5343        0.0179876        -2.11859        0.0180029        -2.11129         0.997435         88.3291
11.75753                0.997465         88.5339        0.0179886        -2.11944        0.0180039        -2.11214         0.997435         88.3287
11.75754                0.997465         88.5336        0.0179896        -2.12029        0.0180049        -2.11299         0.997435         88.3283
11.75755                0.997465         88.5332        0.0179906        -2.12114        0.0180059        -2.11384         0.997434          88.328
11.75756                0.997465         88.5328        0.0179916        -2.12199        0.0180068        -2.11469         0.997434         88.3276
11.75757                0.997464         88.5324        0.0179926        -2.12284        0.0180078        -2.11554         0.997434         88.3272
11.75758                0.997464          88.532        0.0179936        -2.12369        0.0180088        -2.11639         0.997434         88.3268
11.75759                0.997464         88.5317        0.0179946        -2.12454        0.0180098        -2.11725         0.997434         88.3264
11.7576                 0.997464         88.5313        0.0179956        -2.12539        0.0180108         -2.1181         0.997434         88.3261
11.75761                0.997464         88.5309        0.0179966        -2.12624        0.0180118        -2.11896         0.997434         88.3257
11.75762                0.997463         88.5305        0.0179976         -2.1271        0.0180128        -2.11981         0.997434         88.3253
11.75763                0.997463         88.5301        0.0179986        -2.12795        0.0180138        -2.12067         0.997433         88.3249
11.75764                0.997463         88.5298        0.0179996         -2.1288        0.0180148        -2.12153         0.997433         88.3246
11.75765                0.997463         88.5294        0.0180006        -2.12966        0.0180158        -2.12238         0.997433         88.3242
11.75766                0.997463          88.529        0.0180016        -2.13052        0.0180168        -2.12324         0.997433         88.3238
11.75767                0.997462         88.5286        0.0180026        -2.13137        0.0180178         -2.1241         0.997433         88.3234
11.75768                0.997462         88.5282        0.0180036        -2.13223        0.0180188        -2.12496         0.997433          88.323
11.75769                0.997462         88.5279        0.0180046        -2.13309        0.0180198        -2.12582         0.997433         88.3227
11.7577                 0.997462         88.5275        0.0180056        -2.13395        0.0180208        -2.12668         0.997432         88.3223
11.75771                0.997462         88.5271        0.0180066        -2.13481        0.0180218        -2.12754         0.997432         88.3219
11.75772                0.997462         88.5267        0.0180076        -2.13567        0.0180228        -2.12841         0.997432         88.3215
11.75773                0.997461         88.5263        0.0180086        -2.13653        0.0180238        -2.12927         0.997432         88.3211
11.75774                0.997461          88.526        0.0180096        -2.13739        0.0180248        -2.13013         0.997432         88.3208
11.75775                0.997461         88.5256        0.0180107        -2.13826        0.0180258          -2.131         0.997432         88.3204
11.75776                0.997461         88.5252        0.0180117        -2.13912        0.0180268        -2.13186         0.997432           88.32
11.75777                0.997461         88.5248        0.0180127        -2.13998        0.0180278        -2.13273         0.997431         88.3196
11.75778                 0.99746         88.5244        0.0180137        -2.14085        0.0180288         -2.1336         0.997431         88.3192
11.75779                 0.99746         88.5241        0.0180147        -2.14171        0.0180298        -2.13446         0.997431         88.3189
11.7578                  0.99746         88.5237        0.0180157        -2.14258        0.0180308        -2.13533         0.997431         88.3185
11.75781                 0.99746         88.5233        0.0180168        -2.14345        0.0180318         -2.1362         0.997431         88.3181
11.75782                 0.99746         88.5229        0.0180178        -2.14431        0.0180328        -2.13707         0.997431         88.3177
11.75783                0.997459         88.5225        0.0180188        -2.14518        0.0180338        -2.13794         0.997431         88.3173
11.75784                0.997459         88.5222        0.0180198        -2.14605        0.0180349        -2.13881          0.99743          88.317
11.75785                0.997459         88.5218        0.0180208        -2.14692        0.0180359        -2.13968          0.99743         88.3166
11.75786                0.997459         88.5214        0.0180219        -2.14779        0.0180369        -2.14056          0.99743         88.3162
11.75787                0.997459          88.521        0.0180229        -2.14866        0.0180379        -2.14143          0.99743         88.3158
11.75788                0.997458         88.5206        0.0180239        -2.14953        0.0180389         -2.1423          0.99743         88.3154
11.75789                0.997458         88.5203        0.0180249        -2.15041        0.0180399        -2.14318          0.99743         88.3151
11.7579                 0.997458         88.5199         0.018026        -2.15128         0.018041        -2.14406          0.99743         88.3147
11.75791                0.997458         88.5195         0.018027        -2.15215         0.018042        -2.14493         0.997429         88.3143
11.75792                0.997458         88.5191         0.018028        -2.15303         0.018043        -2.14581         0.997429         88.3139
11.75793                0.997457         88.5187        0.0180291        -2.15391         0.018044        -2.14669         0.997429         88.3135
11.75794                0.997457         88.5184        0.0180301        -2.15478         0.018045        -2.14756         0.997429         88.3132
11.75795                0.997457          88.518        0.0180311        -2.15566        0.0180461        -2.14844         0.997429         88.3128
11.75796                0.997457         88.5176        0.0180322        -2.15654        0.0180471        -2.14932         0.997429         88.3124
11.75797                0.997456         88.5172        0.0180332        -2.15742        0.0180481         -2.1502         0.997429          88.312
11.75798                0.997456         88.5168        0.0180342        -2.15829        0.0180491        -2.15109         0.997428         88.3116
11.75799                0.997456         88.5164        0.0180353        -2.15917        0.0180502        -2.15197         0.997428         88.3113
11.758                  0.997456         88.5161        0.0180363        -2.16006        0.0180512        -2.15285         0.997428         88.3109
11.75801                0.997456         88.5157        0.0180373        -2.16094        0.0180522        -2.15373         0.997428         88.3105
11.75802                0.997455         88.5153        0.0180384        -2.16182        0.0180533        -2.15462         0.997428         88.3101
11.75803                0.997455         88.5149        0.0180394         -2.1627        0.0180543         -2.1555         0.997428         88.3097
11.75804                0.997455         88.5145        0.0180405        -2.16359        0.0180553        -2.15639         0.997427         88.3094
11.75805                0.997455         88.5142        0.0180415        -2.16447        0.0180564        -2.15728         0.997427          88.309
11.75806                0.997455         88.5138        0.0180425        -2.16536        0.0180574        -2.15816         0.997427         88.3086
11.75807                0.997454         88.5134        0.0180436        -2.16624        0.0180584        -2.15905         0.997427         88.3082
11.75808                0.997454          88.513        0.0180446        -2.16713        0.0180595        -2.15994         0.997427         88.3078
11.75809                0.997454         88.5126        0.0180457        -2.16802        0.0180605        -2.16083         0.997427         88.3074
11.7581                 0.997454         88.5122        0.0180467         -2.1689        0.0180615        -2.16172         0.997427         88.3071
11.75811                0.997454         88.5119        0.0180478        -2.16979        0.0180626        -2.16261         0.997426         88.3067
11.75812                0.997453         88.5115        0.0180488        -2.17068        0.0180636         -2.1635         0.997426         88.3063
11.75813                0.997453         88.5111        0.0180499        -2.17157        0.0180647         -2.1644         0.997426         88.3059
11.75814                0.997453         88.5107        0.0180509        -2.17247        0.0180657        -2.16529         0.997426         88.3055
11.75815                0.997453         88.5103         0.018052        -2.17336        0.0180667        -2.16618         0.997426         88.3052
11.75816                0.997453           88.51         0.018053        -2.17425        0.0180678        -2.16708         0.997426         88.3048
11.75817                0.997452         88.5096        0.0180541        -2.17514        0.0180688        -2.16797         0.997426         88.3044
11.75818                0.997452         88.5092        0.0180551        -2.17604        0.0180699        -2.16887         0.997425          88.304
11.75819                0.997452         88.5088        0.0180562        -2.17693        0.0180709        -2.16977         0.997425         88.3036
11.7582                 0.997452         88.5084        0.0180572        -2.17783         0.018072        -2.17067         0.997425         88.3032
11.75821                0.997452          88.508        0.0180583        -2.17873         0.018073        -2.17157         0.997425         88.3029
11.75822                0.997451         88.5077        0.0180594        -2.17962        0.0180741        -2.17246         0.997425         88.3025
11.75823                0.997451         88.5073        0.0180604        -2.18052        0.0180751        -2.17337         0.997425         88.3021
11.75824                0.997451         88.5069        0.0180615        -2.18142        0.0180762        -2.17427         0.997424         88.3017
11.75825                0.997451         88.5065        0.0180625        -2.18232        0.0180772        -2.17517         0.997424         88.3013
11.75826                 0.99745         88.5061        0.0180636        -2.18322        0.0180783        -2.17607         0.997424          88.301
11.75827                 0.99745         88.5057        0.0180647        -2.18412        0.0180793        -2.17697         0.997424         88.3006
11.75828                 0.99745         88.5054        0.0180657        -2.18503        0.0180804        -2.17788         0.997424         88.3002
11.75829                 0.99745          88.505        0.0180668        -2.18593        0.0180815        -2.17878         0.997424         88.2998
11.7583                  0.99745         88.5046        0.0180679        -2.18683        0.0180825        -2.17969         0.997423         88.2994
11.75831                0.997449         88.5042        0.0180689        -2.18774        0.0180836         -2.1806         0.997423          88.299
11.75832                0.997449         88.5038          0.01807        -2.18864        0.0180846         -2.1815         0.997423         88.2987
11.75833                0.997449         88.5034        0.0180711        -2.18955        0.0180857        -2.18241         0.997423         88.2983
11.75834                0.997449         88.5031        0.0180721        -2.19045        0.0180868        -2.18332         0.997423         88.2979
11.75835                0.997449         88.5027        0.0180732        -2.19136        0.0180878        -2.18423         0.997423         88.2975
11.75836                0.997448         88.5023        0.0180743        -2.19227        0.0180889        -2.18514         0.997423         88.2971
11.75837                0.997448         88.5019        0.0180754        -2.19318        0.0180899        -2.18605         0.997422         88.2967
11.75838                0.997448         88.5015        0.0180764        -2.19409         0.018091        -2.18696         0.997422         88.2964
11.75839                0.997448         88.5011        0.0180775          -2.195        0.0180921        -2.18788         0.997422          88.296
11.7584                 0.997447         88.5008        0.0180786        -2.19591        0.0180931        -2.18879         0.997422         88.2956
11.75841                0.997447         88.5004        0.0180797        -2.19683        0.0180942        -2.18971         0.997422         88.2952
11.75842                0.997447            88.5        0.0180807        -2.19774        0.0180953        -2.19062         0.997422         88.2948
11.75843                0.997447         88.4996        0.0180818        -2.19865        0.0180964        -2.19154         0.997421         88.2944
11.75844                0.997447         88.4992        0.0180829        -2.19957        0.0180974        -2.19245         0.997421         88.2941
11.75845                0.997446         88.4988         0.018084        -2.20048        0.0180985        -2.19337         0.997421         88.2937
11.75846                0.997446         88.4985        0.0180851         -2.2014        0.0180996        -2.19429         0.997421         88.2933
11.75847                0.997446         88.4981        0.0180861        -2.20232        0.0181006        -2.19521         0.997421         88.2929
11.75848                0.997446         88.4977        0.0180872        -2.20323        0.0181017        -2.19613         0.997421         88.2925
11.75849                0.997446         88.4973        0.0180883        -2.20415        0.0181028        -2.19705          0.99742         88.2921
11.7585                 0.997445         88.4969        0.0180894        -2.20507        0.0181039        -2.19797          0.99742         88.2918
11.75851                0.997445         88.4965        0.0180905        -2.20599         0.018105         -2.1989          0.99742         88.2914
11.75852                0.997445         88.4962        0.0180916        -2.20692         0.018106        -2.19982          0.99742          88.291
11.75853                0.997445         88.4958        0.0180927        -2.20784        0.0181071        -2.20074          0.99742         88.2906
11.75854                0.997444         88.4954        0.0180938        -2.20876        0.0181082        -2.20167          0.99742         88.2902
11.75855                0.997444          88.495        0.0180948        -2.20968        0.0181093        -2.20259         0.997419         88.2898
11.75856                0.997444         88.4946        0.0180959        -2.21061        0.0181104        -2.20352         0.997419         88.2895
11.75857                0.997444         88.4942         0.018097        -2.21153        0.0181115        -2.20445         0.997419         88.2891
11.75858                0.997444         88.4938        0.0180981        -2.21246        0.0181125        -2.20538         0.997419         88.2887
11.75859                0.997443         88.4935        0.0180992        -2.21339        0.0181136        -2.20631         0.997419         88.2883
11.7586                 0.997443         88.4931        0.0181003        -2.21432        0.0181147        -2.20724         0.997419         88.2879
11.75861                0.997443         88.4927        0.0181014        -2.21524        0.0181158        -2.20817         0.997418         88.2875
11.75862                0.997443         88.4923        0.0181025        -2.21617        0.0181169         -2.2091         0.997418         88.2871
11.75863                0.997442         88.4919        0.0181036         -2.2171         0.018118        -2.21003         0.997418         88.2868
11.75864                0.997442         88.4915        0.0181047        -2.21804        0.0181191        -2.21096         0.997418         88.2864
11.75865                0.997442         88.4911        0.0181058        -2.21897        0.0181202         -2.2119         0.997418          88.286
11.75866                0.997442         88.4908        0.0181069         -2.2199        0.0181213        -2.21283         0.997418         88.2856
11.75867                0.997442         88.4904         0.018108        -2.22083        0.0181224        -2.21377         0.997417         88.2852
11.75868                0.997441           88.49        0.0181091        -2.22177        0.0181235        -2.21471         0.997417         88.2848
11.75869                0.997441         88.4896        0.0181102         -2.2227        0.0181246        -2.21564         0.997417         88.2845
11.7587                 0.997441         88.4892        0.0181114        -2.22364        0.0181257        -2.21658         0.997417         88.2841
11.75871                0.997441         88.4888        0.0181125        -2.22458        0.0181268        -2.21752         0.997417         88.2837
11.75872                 0.99744         88.4885        0.0181136        -2.22552        0.0181279        -2.21846         0.997417         88.2833
11.75873                 0.99744         88.4881        0.0181147        -2.22646         0.018129         -2.2194         0.997416         88.2829
11.75874                 0.99744         88.4877        0.0181158        -2.22739        0.0181301        -2.22034         0.997416         88.2825
11.75875                 0.99744         88.4873        0.0181169        -2.22834        0.0181312        -2.22129         0.997416         88.2821
11.75876                 0.99744         88.4869         0.018118        -2.22928        0.0181323        -2.22223         0.997416         88.2818
11.75877                0.997439         88.4865        0.0181191        -2.23022        0.0181334        -2.22318         0.997416         88.2814
11.75878                0.997439         88.4861        0.0181203        -2.23116        0.0181345        -2.22412         0.997416          88.281
11.75879                0.997439         88.4858        0.0181214        -2.23211        0.0181356        -2.22507         0.997415         88.2806
11.7588                 0.997439         88.4854        0.0181225        -2.23305        0.0181367        -2.22601         0.997415         88.2802
11.75881                0.997438          88.485        0.0181236          -2.234        0.0181378        -2.22696         0.997415         88.2798
11.75882                0.997438         88.4846        0.0181247        -2.23494        0.0181389        -2.22791         0.997415         88.2794
11.75883                0.997438         88.4842        0.0181258        -2.23589          0.01814        -2.22886         0.997415         88.2791
11.75884                0.997438         88.4838         0.018127        -2.23684        0.0181412        -2.22981         0.997415         88.2787
11.75885                0.997438         88.4834        0.0181281        -2.23779        0.0181423        -2.23076         0.997414         88.2783
11.75886                0.997437          88.483        0.0181292        -2.23874        0.0181434        -2.23171         0.997414         88.2779
11.75887                0.997437         88.4827        0.0181303        -2.23969        0.0181445        -2.23267         0.997414         88.2775
11.75888                0.997437         88.4823        0.0181315        -2.24064        0.0181456        -2.23362         0.997414         88.2771
11.75889                0.997437         88.4819        0.0181326        -2.24159        0.0181468        -2.23458         0.997414         88.2767
11.7589                 0.997436         88.4815        0.0181337        -2.24255        0.0181479        -2.23553         0.997413         88.2764
11.75891                0.997436         88.4811        0.0181349         -2.2435         0.018149        -2.23649         0.997413          88.276
11.75892                0.997436         88.4807         0.018136        -2.24446        0.0181501        -2.23744         0.997413         88.2756
11.75893                0.997436         88.4803        0.0181371        -2.24541        0.0181512         -2.2384         0.997413         88.2752
11.75894                0.997436           88.48        0.0181383        -2.24637        0.0181524        -2.23936         0.997413         88.2748
11.75895                0.997435         88.4796        0.0181394        -2.24733        0.0181535        -2.24032         0.997413         88.2744
11.75896                0.997435         88.4792        0.0181405        -2.24829        0.0181546        -2.24128         0.997412          88.274
11.75897                0.997435         88.4788        0.0181417        -2.24925        0.0181557        -2.24224         0.997412         88.2737
11.75898                0.997435         88.4784        0.0181428        -2.25021        0.0181569        -2.24321         0.997412         88.2733
11.75899                0.997434          88.478        0.0181439        -2.25117         0.018158        -2.24417         0.997412         88.2729
11.759                  0.997434         88.4776        0.0181451        -2.25213        0.0181591        -2.24514         0.997412         88.2725
11.75901                0.997434         88.4772        0.0181462        -2.25309        0.0181603         -2.2461         0.997411         88.2721
11.75902                0.997434         88.4769        0.0181474        -2.25406        0.0181614        -2.24707         0.997411         88.2717
11.75903                0.997433         88.4765        0.0181485        -2.25502        0.0181625        -2.24803         0.997411         88.2713
11.75904                0.997433         88.4761        0.0181497        -2.25599        0.0181637          -2.249         0.997411         88.2709
11.75905                0.997433         88.4757        0.0181508        -2.25696        0.0181648        -2.24997         0.997411         88.2706
11.75906                0.997433         88.4753        0.0181519        -2.25792         0.018166        -2.25094         0.997411         88.2702
11.75907                0.997433         88.4749        0.0181531        -2.25889        0.0181671        -2.25191          0.99741         88.2698
11.75908                0.997432         88.4745        0.0181542        -2.25986        0.0181682        -2.25288          0.99741         88.2694
11.75909                0.997432         88.4741        0.0181554        -2.26083        0.0181694        -2.25386          0.99741          88.269
11.7591                 0.997432         88.4738        0.0181565         -2.2618        0.0181705        -2.25483          0.99741         88.2686
11.75911                0.997432         88.4734        0.0181577        -2.26278        0.0181717         -2.2558          0.99741         88.2682
11.75912                0.997431          88.473        0.0181589        -2.26375        0.0181728        -2.25678         0.997409         88.2678
11.75913                0.997431         88.4726          0.01816        -2.26472         0.018174        -2.25776         0.997409         88.2675
11.75914                0.997431         88.4722        0.0181612         -2.2657        0.0181751        -2.25873         0.997409         88.2671
11.75915                0.997431         88.4718        0.0181623        -2.26668        0.0181762        -2.25971         0.997409         88.2667
11.75916                 0.99743         88.4714        0.0181635        -2.26765        0.0181774        -2.26069         0.997409         88.2663
11.75917                 0.99743          88.471        0.0181646        -2.26863        0.0181786        -2.26167         0.997409         88.2659
11.75918                 0.99743         88.4706        0.0181658        -2.26961        0.0181797        -2.26265         0.997408         88.2655
11.75919                 0.99743         88.4703         0.018167        -2.27059        0.0181809        -2.26363         0.997408         88.2651
11.7592                 0.997429         88.4699        0.0181681        -2.27157         0.018182        -2.26462         0.997408         88.2647
11.75921                0.997429         88.4695        0.0181693        -2.27255        0.0181832         -2.2656         0.997408         88.2644
11.75922                0.997429         88.4691        0.0181705        -2.27353        0.0181843        -2.26658         0.997408          88.264
11.75923                0.997429         88.4687        0.0181716        -2.27452        0.0181855        -2.26757         0.997407         88.2636
11.75924                0.997428         88.4683        0.0181728         -2.2755        0.0181866        -2.26856         0.997407         88.2632
11.75925                0.997428         88.4679         0.018174        -2.27649        0.0181878        -2.26954         0.997407         88.2628
11.75926                0.997428         88.4675        0.0181751        -2.27747         0.018189        -2.27053         0.997407         88.2624
11.75927                0.997428         88.4671        0.0181763        -2.27846        0.0181901        -2.27152         0.997407          88.262
11.75928                0.997428         88.4668        0.0181775        -2.27945        0.0181913        -2.27251         0.997406         88.2616
11.75929                0.997427         88.4664        0.0181786        -2.28044        0.0181925         -2.2735         0.997406         88.2612
11.7593                 0.997427          88.466        0.0181798        -2.28143        0.0181936         -2.2745         0.997406         88.2609
11.75931                0.997427         88.4656         0.018181        -2.28242        0.0181948        -2.27549         0.997406         88.2605
11.75932                0.997427         88.4652        0.0181822        -2.28341         0.018196        -2.27648         0.997406         88.2601
11.75933                0.997426         88.4648        0.0181833         -2.2844        0.0181971        -2.27748         0.997406         88.2597
11.75934                0.997426         88.4644        0.0181845         -2.2854        0.0181983        -2.27847         0.997405         88.2593
11.75935                0.997426          88.464        0.0181857        -2.28639        0.0181995        -2.27947         0.997405         88.2589
11.75936                0.997426         88.4636        0.0181869        -2.28739        0.0182006        -2.28047         0.997405         88.2585
11.75937                0.997425         88.4633        0.0181881        -2.28838        0.0182018        -2.28147         0.997405         88.2581
11.75938                0.997425         88.4629        0.0181893        -2.28938         0.018203        -2.28247         0.997405         88.2577
11.75939                0.997425         88.4625        0.0181904        -2.29038        0.0182042        -2.28347         0.997404         88.2574
11.7594                 0.997425         88.4621        0.0181916        -2.29138        0.0182053        -2.28447         0.997404          88.257
11.75941                0.997424         88.4617        0.0181928        -2.29238        0.0182065        -2.28547         0.997404         88.2566
11.75942                0.997424         88.4613         0.018194        -2.29338        0.0182077        -2.28648         0.997404         88.2562
11.75943                0.997424         88.4609        0.0181952        -2.29438        0.0182089        -2.28748         0.997404         88.2558
11.75944                0.997424         88.4605        0.0181964        -2.29539        0.0182101        -2.28849         0.997403         88.2554
11.75945                0.997423         88.4601        0.0181976        -2.29639        0.0182112        -2.28949         0.997403          88.255
11.75946                0.997423         88.4597        0.0181988         -2.2974        0.0182124         -2.2905         0.997403         88.2546
11.75947                0.997423         88.4594           0.0182         -2.2984        0.0182136        -2.29151         0.997403         88.2542
11.75948                0.997423          88.459        0.0182012        -2.29941        0.0182148        -2.29252         0.997403         88.2538