! TOUCHSTONE file generated by CST MICROWAVE STUDIO
! Date and time: Wed Mar  5 11:39:35 2025
! Project name: CylCav_PrototypeEasier_Gap1.5_300K.cst
! Parameters = {Cond_Cu=5.8e+07; d=200; gap=1.5; lhot1=-3; lhot2=-3; lprobe=7; r=12.75; rblend=2; rblend2=1.5; rin=0.635; rout=2.05; xThick=6.25; yThick=2; zThick=7}
! Header version: 2024
! Port assignment regex: !\s*Touchstone port\s*([0-9]+)\s*=\s*(CST MWS port|CST DES external port|CST DES block port)\s*(.+)\s* \(\"(.*)\"\)(\s*mode\s*([0-9]+))?.*
! Touchstone port assignment:
! Touchstone port 1 = CST MWS port 1 ("")
! Touchstone port 2 = CST MWS port 2 ("")
# GHz S MA R 50
8.66                 0.996340625     -52.9767828   0.000575359264     -158.952081   0.000575359264     -158.952081      0.996342637     -52.9687048
8.66001              0.996340622     -52.9772874   0.000575381045     -158.950423   0.000575381045     -158.950423      0.996342635     -52.9692094
8.66002              0.996340619     -52.9777919   0.000575402835     -158.948765   0.000575402835     -158.948765      0.996342633      -52.969714
8.66003              0.996340616     -52.9782965   0.000575424634     -158.947107   0.000575424634     -158.947107      0.996342631     -52.9702186
8.66004              0.996340614     -52.9788011   0.000575446442     -158.945449   0.000575446442     -158.945449      0.996342628     -52.9707232
8.66005              0.996340611     -52.9793057   0.000575468258     -158.943791   0.000575468258     -158.943791      0.996342626     -52.9712278
8.66006              0.996340608     -52.9798103   0.000575490083     -158.942134   0.000575490083     -158.942134      0.996342624     -52.9717324
8.66007              0.996340605     -52.9803149   0.000575511918     -158.940476   0.000575511918     -158.940476      0.996342622      -52.972237
8.66008              0.996340603     -52.9808194   0.000575533761     -158.938819   0.000575533761     -158.938819       0.99634262     -52.9727417
8.66009                0.9963406      -52.981324   0.000575555613     -158.937162   0.000575555613     -158.937162      0.996342617     -52.9732463
8.6601               0.996340597     -52.9818286   0.000575577474     -158.935505   0.000575577474     -158.935505      0.996342615     -52.9737509
8.66011              0.996340594     -52.9823332   0.000575599344     -158.933847   0.000575599344     -158.933847      0.996342613     -52.9742555
8.66012              0.996340592     -52.9828378   0.000575621223      -158.93219   0.000575621223      -158.93219      0.996342611     -52.9747601
8.66013              0.996340589     -52.9833424   0.000575643111     -158.930533   0.000575643111     -158.930533      0.996342609     -52.9752647
8.66014              0.996340586      -52.983847   0.000575665008     -158.928876   0.000575665008     -158.928876      0.996342606     -52.9757693
8.66015              0.996340583     -52.9843515   0.000575686913      -158.92722   0.000575686913      -158.92722      0.996342604     -52.9762739
8.66016              0.996340581     -52.9848561   0.000575708828     -158.925563   0.000575708828     -158.925563      0.996342602     -52.9767785
8.66017              0.996340578     -52.9853607   0.000575730752     -158.923906   0.000575730752     -158.923906        0.9963426     -52.9772831
8.66018              0.996340575     -52.9858653   0.000575752684      -158.92225   0.000575752684      -158.92225      0.996342597     -52.9777877
8.66019              0.996340572     -52.9863699   0.000575774626     -158.920593   0.000575774626     -158.920593      0.996342595     -52.9782923
8.6602               0.996340569     -52.9868745   0.000575796576     -158.918937   0.000575796576     -158.918937      0.996342593     -52.9787969
8.66021              0.996340567     -52.9873791   0.000575818536     -158.917281   0.000575818536     -158.917281      0.996342591     -52.9793015
8.66022              0.996340564     -52.9878836   0.000575840504     -158.915625   0.000575840504     -158.915625      0.996342589     -52.9798062
8.66023              0.996340561     -52.9883882   0.000575862482     -158.913968   0.000575862482     -158.913968      0.996342586     -52.9803108
8.66024              0.996340558     -52.9888928   0.000575884468     -158.912312   0.000575884468     -158.912312      0.996342584     -52.9808154
8.66025              0.996340555     -52.9893974   0.000575906464     -158.910657   0.000575906464     -158.910657      0.996342582       -52.98132
8.66026              0.996340553      -52.989902   0.000575928468     -158.909001   0.000575928468     -158.909001       0.99634258     -52.9818246
8.66027               0.99634055     -52.9904066   0.000575950482     -158.907345   0.000575950482     -158.907345      0.996342577     -52.9823292
8.66028              0.996340547     -52.9909112   0.000575972505     -158.905689   0.000575972505     -158.905689      0.996342575     -52.9828338
8.66029              0.996340544     -52.9914158   0.000575994536     -158.904034   0.000575994536     -158.904034      0.996342573     -52.9833384
8.6603               0.996340541     -52.9919204   0.000576016577     -158.902378   0.000576016577     -158.902378      0.996342571      -52.983843
8.66031              0.996340539     -52.9924249   0.000576038627     -158.900723   0.000576038627     -158.900723      0.996342568     -52.9843476
8.66032              0.996340536     -52.9929295   0.000576060686     -158.899067   0.000576060686     -158.899067      0.996342566     -52.9848523
8.66033              0.996340533     -52.9934341   0.000576082753     -158.897412   0.000576082753     -158.897412      0.996342564     -52.9853569
8.66034               0.99634053     -52.9939387    0.00057610483     -158.895757    0.00057610483     -158.895757      0.996342562     -52.9858615
8.66035              0.996340527     -52.9944433   0.000576126916     -158.894102   0.000576126916     -158.894102      0.996342559     -52.9863661
8.66036              0.996340525     -52.9949479   0.000576149012     -158.892447   0.000576149012     -158.892447      0.996342557     -52.9868707
8.66037              0.996340522     -52.9954525   0.000576171116     -158.890792   0.000576171116     -158.890792      0.996342555     -52.9873753
8.66038              0.996340519     -52.9959571   0.000576193229     -158.889137   0.000576193229     -158.889137      0.996342553     -52.9878799
8.66039              0.996340516     -52.9964617   0.000576215352     -158.887482   0.000576215352     -158.887482       0.99634255     -52.9883845
8.6604               0.996340513     -52.9969663   0.000576237483     -158.885828   0.000576237483     -158.885828      0.996342548     -52.9888891
8.66041               0.99634051     -52.9974708   0.000576259624     -158.884173   0.000576259624     -158.884173      0.996342546     -52.9893938
8.66042              0.996340508     -52.9979754   0.000576281774     -158.882519   0.000576281774     -158.882519      0.996342543     -52.9898984
8.66043              0.996340505       -52.99848   0.000576303933     -158.880864   0.000576303933     -158.880864      0.996342541      -52.990403
8.66044              0.996340502     -52.9989846   0.000576326101      -158.87921   0.000576326101      -158.87921      0.996342539     -52.9909076
8.66045              0.996340499     -52.9994892   0.000576348278     -158.877556   0.000576348278     -158.877556      0.996342537     -52.9914122
8.66046              0.996340496     -52.9999938   0.000576370464     -158.875902   0.000576370464     -158.875902      0.996342534     -52.9919168
8.66047              0.996340493     -53.0004984    0.00057639266     -158.874248    0.00057639266     -158.874248      0.996342532     -52.9924214
8.66048              0.996340491      -53.001003   0.000576414865     -158.872594   0.000576414865     -158.872594       0.99634253     -52.9929261
8.66049              0.996340488     -53.0015076   0.000576437079      -158.87094   0.000576437079      -158.87094      0.996342528     -52.9934307
8.6605               0.996340485     -53.0020122   0.000576459302     -158.869286   0.000576459302     -158.869286      0.996342525     -52.9939353
8.66051              0.996340482     -53.0025168   0.000576481534     -158.867632   0.000576481534     -158.867632      0.996342523     -52.9944399
8.66052              0.996340479     -53.0030214   0.000576503775     -158.865979   0.000576503775     -158.865979      0.996342521     -52.9949445
8.66053              0.996340476      -53.003526   0.000576526026     -158.864325   0.000576526026     -158.864325      0.996342518     -52.9954491
8.66054              0.996340473     -53.0040305   0.000576548286     -158.862672   0.000576548286     -158.862672      0.996342516     -52.9959537
8.66055              0.996340471     -53.0045351   0.000576570555     -158.861018   0.000576570555     -158.861018      0.996342514     -52.9964584
8.66056              0.996340468     -53.0050397   0.000576592834     -158.859365   0.000576592834     -158.859365      0.996342511      -52.996963
8.66057              0.996340465     -53.0055443   0.000576615121     -158.857712   0.000576615121     -158.857712      0.996342509     -52.9974676
8.66058              0.996340462     -53.0060489   0.000576637418     -158.856058   0.000576637418     -158.856058      0.996342507     -52.9979722
8.66059              0.996340459     -53.0065535   0.000576659724     -158.854405   0.000576659724     -158.854405      0.996342505     -52.9984768
8.6606               0.996340456     -53.0070581   0.000576682039     -158.852752   0.000576682039     -158.852752      0.996342502     -52.9989814
8.66061              0.996340453     -53.0075627   0.000576704364       -158.8511   0.000576704364       -158.8511        0.9963425     -52.9994861
8.66062              0.996340451     -53.0080673   0.000576726698     -158.849447   0.000576726698     -158.849447      0.996342498     -52.9999907
8.66063              0.996340448     -53.0085719   0.000576749041     -158.847794   0.000576749041     -158.847794      0.996342495     -53.0004953
8.66064              0.996340445     -53.0090765   0.000576771393     -158.846141   0.000576771393     -158.846141      0.996342493     -53.0009999
8.66065              0.996340442     -53.0095811   0.000576793755     -158.844489   0.000576793755     -158.844489      0.996342491     -53.0015045
8.66066              0.996340439     -53.0100857   0.000576816126     -158.842836   0.000576816126     -158.842836      0.996342488     -53.0020091
8.66067              0.996340436     -53.0105903   0.000576838506     -158.841184   0.000576838506     -158.841184      0.996342486     -53.0025138
8.66068              0.996340433     -53.0110949   0.000576860896     -158.839532   0.000576860896     -158.839532      0.996342484     -53.0030184
8.66069               0.99634043     -53.0115995   0.000576883295     -158.837879   0.000576883295     -158.837879      0.996342481      -53.003523
8.6607               0.996340428     -53.0121041   0.000576905703     -158.836227   0.000576905703     -158.836227      0.996342479     -53.0040276
8.66071              0.996340425     -53.0126087   0.000576928121     -158.834575   0.000576928121     -158.834575      0.996342477     -53.0045322
8.66072              0.996340422     -53.0131133   0.000576950548     -158.832923   0.000576950548     -158.832923      0.996342474     -53.0050369
8.66073              0.996340419     -53.0136179   0.000576972984     -158.831271   0.000576972984     -158.831271      0.996342472     -53.0055415
8.66074              0.996340416     -53.0141225    0.00057699543      -158.82962    0.00057699543      -158.82962       0.99634247     -53.0060461
8.66075              0.996340413     -53.0146271   0.000577017885     -158.827968   0.000577017885     -158.827968      0.996342467     -53.0065507
8.66076               0.99634041     -53.0151317   0.000577040349     -158.826316   0.000577040349     -158.826316      0.996342465     -53.0070553
8.66077              0.996340407     -53.0156363   0.000577062823     -158.824665   0.000577062823     -158.824665      0.996342463       -53.00756
8.66078              0.996340404     -53.0161409   0.000577085306     -158.823013   0.000577085306     -158.823013       0.99634246     -53.0080646
8.66079              0.996340401     -53.0166455   0.000577107799     -158.821362   0.000577107799     -158.821362      0.996342458     -53.0085692
8.6608               0.996340399     -53.0171501   0.000577130301      -158.81971   0.000577130301      -158.81971      0.996342456     -53.0090738
8.66081              0.996340396     -53.0176547   0.000577152812     -158.818059   0.000577152812     -158.818059      0.996342453     -53.0095784
8.66082              0.996340393     -53.0181593   0.000577175333     -158.816408   0.000577175333     -158.816408      0.996342451     -53.0100831
8.66083               0.99634039     -53.0186639   0.000577197863     -158.814757   0.000577197863     -158.814757      0.996342449     -53.0105877
8.66084              0.996340387     -53.0191685   0.000577220402     -158.813106   0.000577220402     -158.813106      0.996342446     -53.0110923
8.66085              0.996340384     -53.0196731   0.000577242951     -158.811455   0.000577242951     -158.811455      0.996342444     -53.0115969
8.66086              0.996340381     -53.0201777    0.00057726551     -158.809804    0.00057726551     -158.809804      0.996342442     -53.0121016
8.66087              0.996340378     -53.0206823   0.000577288078     -158.808153   0.000577288078     -158.808153      0.996342439     -53.0126062
8.66088              0.996340375     -53.0211869   0.000577310655     -158.806503   0.000577310655     -158.806503      0.996342437     -53.0131108
8.66089              0.996340372     -53.0216915   0.000577333242     -158.804852   0.000577333242     -158.804852      0.996342434     -53.0136154
8.6609               0.996340369     -53.0221961   0.000577355838     -158.803202   0.000577355838     -158.803202      0.996342432       -53.01412
8.66091              0.996340366     -53.0227007   0.000577378444     -158.801551   0.000577378444     -158.801551       0.99634243     -53.0146247
8.66092              0.996340364     -53.0232053   0.000577401059     -158.799901   0.000577401059     -158.799901      0.996342427     -53.0151293
8.66093              0.996340361     -53.0237099   0.000577423684     -158.798251   0.000577423684     -158.798251      0.996342425     -53.0156339
8.66094              0.996340358     -53.0242145   0.000577446318     -158.796601   0.000577446318     -158.796601      0.996342423     -53.0161385
8.66095              0.996340355     -53.0247191   0.000577468962      -158.79495   0.000577468962      -158.79495       0.99634242     -53.0166432
8.66096              0.996340352     -53.0252237   0.000577491616       -158.7933   0.000577491616       -158.7933      0.996342418     -53.0171478
8.66097              0.996340349     -53.0257283   0.000577514278     -158.791651   0.000577514278     -158.791651      0.996342415     -53.0176524
8.66098              0.996340346     -53.0262329   0.000577536951     -158.790001   0.000577536951     -158.790001      0.996342413      -53.018157
8.66099              0.996340343     -53.0267375   0.000577559633     -158.788351   0.000577559633     -158.788351      0.996342411     -53.0186617
8.661                 0.99634034     -53.0272421   0.000577582324     -158.786701   0.000577582324     -158.786701      0.996342408     -53.0191663
8.66101              0.996340337     -53.0277467   0.000577605025     -158.785052   0.000577605025     -158.785052      0.996342406     -53.0196709
8.66102              0.996340334     -53.0282513   0.000577627736     -158.783402   0.000577627736     -158.783402      0.996342403     -53.0201756
8.66103              0.996340331     -53.0287559   0.000577650456     -158.781753   0.000577650456     -158.781753      0.996342401     -53.0206802
8.66104              0.996340328     -53.0292605   0.000577673185     -158.780103   0.000577673185     -158.780103      0.996342399     -53.0211848
8.66105              0.996340325     -53.0297651   0.000577695925     -158.778454   0.000577695925     -158.778454      0.996342396     -53.0216894
8.66106              0.996340322     -53.0302697   0.000577718674     -158.776805   0.000577718674     -158.776805      0.996342394     -53.0221941
8.66107              0.996340319     -53.0307743   0.000577741432     -158.775156   0.000577741432     -158.775156      0.996342391     -53.0226987
8.66108              0.996340316     -53.0312789     0.0005777642     -158.773507     0.0005777642     -158.773507      0.996342389     -53.0232033
8.66109              0.996340313     -53.0317836   0.000577786978     -158.771858   0.000577786978     -158.771858      0.996342387     -53.0237079
8.6611                0.99634031     -53.0322882   0.000577809765     -158.770209   0.000577809765     -158.770209      0.996342384     -53.0242126
8.66111              0.996340308     -53.0327928   0.000577832562      -158.76856   0.000577832562      -158.76856      0.996342382     -53.0247172
8.66112              0.996340305     -53.0332974   0.000577855369     -158.766911   0.000577855369     -158.766911      0.996342379     -53.0252218
8.66113              0.996340302      -53.033802   0.000577878185     -158.765263   0.000577878185     -158.765263      0.996342377     -53.0257265
8.66114              0.996340299     -53.0343066   0.000577901011     -158.763614   0.000577901011     -158.763614      0.996342375     -53.0262311
8.66115              0.996340296     -53.0348112   0.000577923846     -158.761966   0.000577923846     -158.761966      0.996342372     -53.0267357
8.66116              0.996340293     -53.0353158   0.000577946692     -158.760317   0.000577946692     -158.760317       0.99634237     -53.0272404
8.66117               0.99634029     -53.0358204   0.000577969547     -158.758669   0.000577969547     -158.758669      0.996342367      -53.027745
8.66118              0.996340287      -53.036325   0.000577992411     -158.757021   0.000577992411     -158.757021      0.996342365     -53.0282496
8.66119              0.996340284     -53.0368296   0.000578015285     -158.755372   0.000578015285     -158.755372      0.996342362     -53.0287542
8.6612               0.996340281     -53.0373342   0.000578038169     -158.753724   0.000578038169     -158.753724       0.99634236     -53.0292589
8.66121              0.996340278     -53.0378388   0.000578061063     -158.752076   0.000578061063     -158.752076      0.996342358     -53.0297635
8.66122              0.996340275     -53.0383435   0.000578083966     -158.750428   0.000578083966     -158.750428      0.996342355     -53.0302681
8.66123              0.996340272     -53.0388481    0.00057810688     -158.748781    0.00057810688     -158.748781      0.996342353     -53.0307728
8.66124              0.996340269     -53.0393527   0.000578129802     -158.747133   0.000578129802     -158.747133       0.99634235     -53.0312774
8.66125              0.996340266     -53.0398573   0.000578152735     -158.745485   0.000578152735     -158.745485      0.996342348      -53.031782
8.66126              0.996340263     -53.0403619   0.000578175677     -158.743838   0.000578175677     -158.743838      0.996342345     -53.0322867
8.66127               0.99634026     -53.0408665   0.000578198629      -158.74219   0.000578198629      -158.74219      0.996342343     -53.0327913
8.66128              0.996340257     -53.0413711   0.000578221591     -158.740543   0.000578221591     -158.740543      0.996342341     -53.0332959
8.66129              0.996340254     -53.0418757   0.000578244563     -158.738895   0.000578244563     -158.738895      0.996342338     -53.0338006
8.6613               0.996340251     -53.0423803   0.000578267544     -158.737248   0.000578267544     -158.737248      0.996342336     -53.0343052
8.66131              0.996340248      -53.042885   0.000578290535     -158.735601   0.000578290535     -158.735601      0.996342333     -53.0348098
8.66132              0.996340245     -53.0433896   0.000578313536     -158.733954   0.000578313536     -158.733954      0.996342331     -53.0353145
8.66133              0.996340242     -53.0438942   0.000578336547     -158.732307   0.000578336547     -158.732307      0.996342328     -53.0358191
8.66134              0.996340239     -53.0443988   0.000578359568      -158.73066   0.000578359568      -158.73066      0.996342326     -53.0363237
8.66135              0.996340236     -53.0449034   0.000578382598     -158.729013   0.000578382598     -158.729013      0.996342323     -53.0368284
8.66136              0.996340233      -53.045408   0.000578405638     -158.727366   0.000578405638     -158.727366      0.996342321      -53.037333
8.66137               0.99634023     -53.0459126   0.000578428688     -158.725719   0.000578428688     -158.725719      0.996342318     -53.0378376
8.66138              0.996340227     -53.0464172   0.000578451748     -158.724073   0.000578451748     -158.724073      0.996342316     -53.0383423
8.66139              0.996340224     -53.0469219   0.000578474818     -158.722426   0.000578474818     -158.722426      0.996342313     -53.0388469
8.6614               0.996340221     -53.0474265   0.000578497898     -158.720779   0.000578497898     -158.720779      0.996342311     -53.0393515
8.66141              0.996340218     -53.0479311   0.000578520987     -158.719133   0.000578520987     -158.719133      0.996342309     -53.0398562
8.66142              0.996340215     -53.0484357   0.000578544086     -158.717487   0.000578544086     -158.717487      0.996342306     -53.0403608
8.66143              0.996340212     -53.0489403   0.000578567196      -158.71584   0.000578567196      -158.71584      0.996342304     -53.0408655
8.66144              0.996340209     -53.0494449   0.000578590315     -158.714194   0.000578590315     -158.714194      0.996342301     -53.0413701
8.66145              0.996340206     -53.0499495   0.000578613444     -158.712548   0.000578613444     -158.712548      0.996342299     -53.0418747
8.66146              0.996340202     -53.0504542   0.000578636583     -158.710902   0.000578636583     -158.710902      0.996342296     -53.0423794
8.66147              0.996340199     -53.0509588   0.000578659731     -158.709256   0.000578659731     -158.709256      0.996342294      -53.042884
8.66148              0.996340196     -53.0514634    0.00057868289      -158.70761    0.00057868289      -158.70761      0.996342291     -53.0433886
8.66149              0.996340193      -53.051968   0.000578706059     -158.705964   0.000578706059     -158.705964      0.996342289     -53.0438933
8.6615                0.99634019     -53.0524726   0.000578729237     -158.704319   0.000578729237     -158.704319      0.996342286     -53.0443979
8.66151              0.996340187     -53.0529772   0.000578752426     -158.702673   0.000578752426     -158.702673      0.996342284     -53.0449026
8.66152              0.996340184     -53.0534819   0.000578775624     -158.701028   0.000578775624     -158.701028      0.996342281     -53.0454072
8.66153              0.996340181     -53.0539865   0.000578798833     -158.699382   0.000578798833     -158.699382      0.996342279     -53.0459118
8.66154              0.996340178     -53.0544911   0.000578822051     -158.697737   0.000578822051     -158.697737      0.996342276     -53.0464165
8.66155              0.996340175     -53.0549957    0.00057884528     -158.696091    0.00057884528     -158.696091      0.996342274     -53.0469211
8.66156              0.996340172     -53.0555003   0.000578868518     -158.694446   0.000578868518     -158.694446      0.996342271     -53.0474258
8.66157              0.996340169      -53.056005   0.000578891767     -158.692801   0.000578891767     -158.692801      0.996342269     -53.0479304
8.66158              0.996340166     -53.0565096   0.000578915025     -158.691156   0.000578915025     -158.691156      0.996342266      -53.048435
8.66159              0.996340163     -53.0570142   0.000578938293     -158.689511   0.000578938293     -158.689511      0.996342264     -53.0489397
8.6616                0.99634016     -53.0575188   0.000578961572     -158.687866   0.000578961572     -158.687866      0.996342261     -53.0494443
8.66161              0.996340157     -53.0580234    0.00057898486     -158.686221    0.00057898486     -158.686221      0.996342259      -53.049949
8.66162              0.996340154     -53.0585281   0.000579008159     -158.684576   0.000579008159     -158.684576      0.996342256     -53.0504536
8.66163              0.996340151     -53.0590327   0.000579031467     -158.682931   0.000579031467     -158.682931      0.996342254     -53.0509583
8.66164              0.996340148     -53.0595373   0.000579054786     -158.681287   0.000579054786     -158.681287      0.996342251     -53.0514629
8.66165              0.996340144     -53.0600419   0.000579078114     -158.679642   0.000579078114     -158.679642      0.996342249     -53.0519675
8.66166              0.996340141     -53.0605465   0.000579101453     -158.677998   0.000579101453     -158.677998      0.996342246     -53.0524722
8.66167              0.996340138     -53.0610512   0.000579124802     -158.676353   0.000579124802     -158.676353      0.996342244     -53.0529768
8.66168              0.996340135     -53.0615558   0.000579148161     -158.674709   0.000579148161     -158.674709      0.996342241     -53.0534815
8.66169              0.996340132     -53.0620604    0.00057917153     -158.673065    0.00057917153     -158.673065      0.996342239     -53.0539861
8.6617               0.996340129      -53.062565   0.000579194909      -158.67142   0.000579194909      -158.67142      0.996342236     -53.0544908
8.66171              0.996340126     -53.0630696   0.000579218298     -158.669776   0.000579218298     -158.669776      0.996342233     -53.0549954
8.66172              0.996340123     -53.0635743   0.000579241697     -158.668132   0.000579241697     -158.668132      0.996342231        -53.0555
8.66173               0.99634012     -53.0640789   0.000579265107     -158.666488   0.000579265107     -158.666488      0.996342228     -53.0560047
8.66174              0.996340117     -53.0645835   0.000579288526     -158.664844   0.000579288526     -158.664844      0.996342226     -53.0565093
8.66175              0.996340114     -53.0650881   0.000579311956     -158.663201   0.000579311956     -158.663201      0.996342223      -53.057014
8.66176              0.996340111     -53.0655928   0.000579335396     -158.661557   0.000579335396     -158.661557      0.996342221     -53.0575186
8.66177              0.996340107     -53.0660974   0.000579358846     -158.659913   0.000579358846     -158.659913      0.996342218     -53.0580233
8.66178              0.996340104      -53.066602   0.000579382306      -158.65827   0.000579382306      -158.65827      0.996342216     -53.0585279
8.66179              0.996340101     -53.0671066   0.000579405776     -158.656626   0.000579405776     -158.656626      0.996342213     -53.0590326
8.6618               0.996340098     -53.0676113   0.000579429257     -158.654983   0.000579429257     -158.654983      0.996342211     -53.0595372
8.66181              0.996340095     -53.0681159   0.000579452748     -158.653339   0.000579452748     -158.653339      0.996342208     -53.0600419
8.66182              0.996340092     -53.0686205   0.000579476249     -158.651696   0.000579476249     -158.651696      0.996342205     -53.0605465
8.66183              0.996340089     -53.0691251    0.00057949976     -158.650053    0.00057949976     -158.650053      0.996342203     -53.0610512
8.66184              0.996340086     -53.0696298   0.000579523281      -158.64841   0.000579523281      -158.64841        0.9963422     -53.0615558
8.66185              0.996340083     -53.0701344   0.000579546813     -158.646767   0.000579546813     -158.646767      0.996342198     -53.0620604
8.66186               0.99634008      -53.070639   0.000579570355     -158.645124   0.000579570355     -158.645124      0.996342195     -53.0625651
8.66187              0.996340076     -53.0711436   0.000579593907     -158.643481   0.000579593907     -158.643481      0.996342193     -53.0630697
8.66188              0.996340073     -53.0716483   0.000579617469     -158.641838   0.000579617469     -158.641838       0.99634219     -53.0635744
8.66189               0.99634007     -53.0721529   0.000579641042     -158.640195   0.000579641042     -158.640195      0.996342188      -53.064079
8.6619               0.996340067     -53.0726575   0.000579664624     -158.638553   0.000579664624     -158.638553      0.996342185     -53.0645837
8.66191              0.996340064     -53.0731621   0.000579688218      -158.63691   0.000579688218      -158.63691      0.996342182     -53.0650883
8.66192              0.996340061     -53.0736668   0.000579711821     -158.635268   0.000579711821     -158.635268       0.99634218      -53.065593
8.66193              0.996340058     -53.0741714   0.000579735435     -158.633625   0.000579735435     -158.633625      0.996342177     -53.0660976
8.66194              0.996340055      -53.074676   0.000579759059     -158.631983   0.000579759059     -158.631983      0.996342175     -53.0666023
8.66195              0.996340051     -53.0751807   0.000579782693      -158.63034   0.000579782693      -158.63034      0.996342172     -53.0671069
8.66196              0.996340048     -53.0756853   0.000579806338     -158.628698   0.000579806338     -158.628698      0.996342169     -53.0676116
8.66197              0.996340045     -53.0761899   0.000579829993     -158.627056   0.000579829993     -158.627056      0.996342167     -53.0681162