! TOUCHSTONE file generated by CST MICROWAVE STUDIO
! Date and time: Wed Mar  5 01:24:03 2025
! Project name: CylCav_PrototypeEasier_Gap1.5_300K.cst
! Parameters = {Cond_Cu=5.8e+07; d=200; gap=1.5; lhot1=0.9; lhot2=-3; lprobe=7; r=12.75; rblend=2; rblend2=1.5; rin=0.635; rout=2.05; xThick=6.25; yThick=2; zThick=7}
! Header version: 2024
! Port assignment regex: !\s*Touchstone port\s*([0-9]+)\s*=\s*(CST MWS port|CST DES external port|CST DES block port)\s*(.+)\s* \(\"(.*)\"\)(\s*mode\s*([0-9]+))?.*
! Touchstone port assignment:
! Touchstone port 1 = CST MWS port 1 ("")
! Touchstone port 2 = CST MWS port 2 ("")
# GHz S MA R 50
8.66                 0.995196869     -176.582102    0.00217155917      148.863694    0.00217155917      148.863694      0.996307038     -53.2211501
8.66001               0.99519672     -176.583344    0.00217190253      148.864379    0.00217190253      148.864379      0.996307034     -53.2216561
8.66002              0.995196571     -176.584587     0.0021722461      148.865064     0.0021722461      148.865064      0.996307031     -53.2221622
8.66003              0.995196421      -176.58583    0.00217258988      148.865748    0.00217258988      148.865748      0.996307027     -53.2226683
8.66004              0.995196271     -176.587074    0.00217293387      148.866433    0.00217293387      148.866433      0.996307024     -53.2231744
8.66005              0.995196121     -176.588318    0.00217327807      148.867118    0.00217327807      148.867118       0.99630702     -53.2236804
8.66006              0.995195971     -176.589562    0.00217362249      148.867802    0.00217362249      148.867802      0.996307016     -53.2241865
8.66007              0.995195821     -176.590807    0.00217396711      148.868486    0.00217396711      148.868486      0.996307013     -53.2246926
8.66008              0.995195671     -176.592052    0.00217431195       148.86917    0.00217431195       148.86917      0.996307009     -53.2251986
8.66009               0.99519552     -176.593298    0.00217465699      148.869854    0.00217465699      148.869854      0.996307006     -53.2257047
8.6601               0.995195369     -176.594544    0.00217500225      148.870537    0.00217500225      148.870537      0.996307002     -53.2262108
8.66011              0.995195218      -176.59579    0.00217534772      148.871221    0.00217534772      148.871221      0.996306999     -53.2267169
8.66012              0.995195067     -176.597037    0.00217569341      148.871904    0.00217569341      148.871904      0.996306995     -53.2272229
8.66013              0.995194916     -176.598284     0.0021760393      148.872587     0.0021760393      148.872587      0.996306992      -53.227729
8.66014              0.995194764     -176.599532    0.00217638541       148.87327    0.00217638541       148.87327      0.996306988     -53.2282351
8.66015              0.995194612      -176.60078    0.00217673173      148.873953    0.00217673173      148.873953      0.996306984     -53.2287412
8.66016              0.995194461     -176.602029    0.00217707827      148.874636    0.00217707827      148.874636      0.996306981     -53.2292472
8.66017              0.995194308     -176.603278    0.00217742502      148.875318    0.00217742502      148.875318      0.996306977     -53.2297533
8.66018              0.995194156     -176.604527    0.00217777198      148.876001    0.00217777198      148.876001      0.996306974     -53.2302594
8.66019              0.995194004     -176.605777    0.00217811916      148.876683    0.00217811916      148.876683       0.99630697     -53.2307654
8.6602               0.995193851     -176.607027    0.00217846655      148.877365    0.00217846655      148.877365      0.996306967     -53.2312715
8.66021              0.995193698     -176.608277    0.00217881415      148.878047    0.00217881415      148.878047      0.996306963     -53.2317776
8.66022              0.995193545     -176.609528    0.00217916197      148.878728    0.00217916197      148.878728       0.99630696     -53.2322837
8.66023              0.995193392      -176.61078       0.00217951       148.87941       0.00217951       148.87941      0.996306956     -53.2327897
8.66024              0.995193239     -176.612031    0.00217985825      148.880091    0.00217985825      148.880091      0.996306952     -53.2332958
8.66025              0.995193085     -176.613284    0.00218020672      148.880772    0.00218020672      148.880772      0.996306949     -53.2338019
8.66026              0.995192932     -176.614536     0.0021805554      148.881453     0.0021805554      148.881453      0.996306945      -53.234308
8.66027              0.995192778     -176.615789    0.00218090429      148.882134    0.00218090429      148.882134      0.996306942      -53.234814
8.66028              0.995192624     -176.617043    0.00218125341      148.882815    0.00218125341      148.882815      0.996306938     -53.2353201
8.66029              0.995192469     -176.618297    0.00218160273      148.883495    0.00218160273      148.883495      0.996306934     -53.2358262
8.6603               0.995192315     -176.619551    0.00218195228      148.884176    0.00218195228      148.884176      0.996306931     -53.2363323
8.66031               0.99519216     -176.620806    0.00218230204      148.884856    0.00218230204      148.884856      0.996306927     -53.2368384
8.66032              0.995192006     -176.622061    0.00218265202      148.885536    0.00218265202      148.885536      0.996306924     -53.2373444
8.66033              0.995191851     -176.623316    0.00218300221      148.886215    0.00218300221      148.886215       0.99630692     -53.2378505
8.66034              0.995191695     -176.624572    0.00218335263      148.886895    0.00218335263      148.886895      0.996306917     -53.2383566
8.66035               0.99519154     -176.625828    0.00218370326      148.887575    0.00218370326      148.887575      0.996306913     -53.2388627
8.66036              0.995191384     -176.627085     0.0021840541      148.888254     0.0021840541      148.888254      0.996306909     -53.2393687
8.66037              0.995191229     -176.628342    0.00218440517      148.888933    0.00218440517      148.888933      0.996306906     -53.2398748
8.66038              0.995191073       -176.6296    0.00218475646      148.889612    0.00218475646      148.889612      0.996306902     -53.2403809
8.66039              0.995190917     -176.630858    0.00218510796      148.890291    0.00218510796      148.890291      0.996306899      -53.240887
8.6604                0.99519076     -176.632117    0.00218545968       148.89097    0.00218545968       148.89097      0.996306895      -53.241393
8.66041              0.995190604     -176.633375    0.00218581162      148.891648    0.00218581162      148.891648      0.996306891     -53.2418991
8.66042              0.995190447     -176.634635    0.00218616378      148.892326    0.00218616378      148.892326      0.996306888     -53.2424052
8.66043               0.99519029     -176.635894    0.00218651616      148.893004    0.00218651616      148.893004      0.996306884     -53.2429113
8.66044              0.995190133     -176.637155    0.00218686876      148.893682    0.00218686876      148.893682       0.99630688     -53.2434174
8.66045              0.995189976     -176.638415    0.00218722158       148.89436    0.00218722158       148.89436      0.996306877     -53.2439234
8.66046              0.995189818     -176.639676    0.00218757463      148.895038    0.00218757463      148.895038      0.996306873     -53.2444295
8.66047              0.995189661     -176.640938    0.00218792789      148.895715    0.00218792789      148.895715       0.99630687     -53.2449356
8.66048              0.995189503     -176.642199    0.00218828137      148.896393    0.00218828137      148.896393      0.996306866     -53.2454417
8.66049              0.995189345     -176.643462    0.00218863507       148.89707    0.00218863507       148.89707      0.996306862     -53.2459478
8.6605               0.995189187     -176.644724    0.00218898899      148.897747    0.00218898899      148.897747      0.996306859     -53.2464538
8.66051              0.995189028     -176.645988    0.00218934314      148.898423    0.00218934314      148.898423      0.996306855     -53.2469599
8.66052               0.99518887     -176.647251    0.00218969751        148.8991    0.00218969751        148.8991      0.996306851      -53.247466
8.66053              0.995188711     -176.648515     0.0021900521      148.899776     0.0021900521      148.899776      0.996306848     -53.2479721
8.66054              0.995188552     -176.649779    0.00219040691      148.900453    0.00219040691      148.900453      0.996306844     -53.2484781
8.66055              0.995188393     -176.651044    0.00219076194      148.901129    0.00219076194      148.901129      0.996306841     -53.2489842
8.66056              0.995188233      -176.65231     0.0021911172      148.901805     0.0021911172      148.901805      0.996306837     -53.2494903
8.66057              0.995188074     -176.653575    0.00219147268      148.902481    0.00219147268      148.902481      0.996306833     -53.2499964
8.66058              0.995187914     -176.654841    0.00219182838      148.903156    0.00219182838      148.903156       0.99630683     -53.2505025
8.66059              0.995187754     -176.656108    0.00219218431      148.903832    0.00219218431      148.903832      0.996306826     -53.2510086
8.6606               0.995187594     -176.657375    0.00219254046      148.904507    0.00219254046      148.904507      0.996306822     -53.2515146
8.66061              0.995187433     -176.658642    0.00219289683      148.905182    0.00219289683      148.905182      0.996306819     -53.2520207
8.66062              0.995187273      -176.65991    0.00219325343      148.905857    0.00219325343      148.905857      0.996306815     -53.2525268
8.66063              0.995187112     -176.661178    0.00219361025      148.906531    0.00219361025      148.906531      0.996306811     -53.2530329
8.66064              0.995186951     -176.662447     0.0021939673      148.907206     0.0021939673      148.907206      0.996306808      -53.253539
8.66065               0.99518679     -176.663716    0.00219432457       148.90788    0.00219432457       148.90788      0.996306804      -53.254045
8.66066              0.995186629     -176.664986    0.00219468207      148.908555    0.00219468207      148.908555        0.9963068     -53.2545511
8.66067              0.995186467     -176.666256    0.00219503979      148.909229    0.00219503979      148.909229      0.996306797     -53.2550572
8.66068              0.995186306     -176.667526    0.00219539774      148.909903    0.00219539774      148.909903      0.996306793     -53.2555633
8.66069              0.995186144     -176.668797    0.00219575592      148.910576    0.00219575592      148.910576      0.996306789     -53.2560694
8.6607               0.995185982     -176.670068    0.00219611432       148.91125    0.00219611432       148.91125      0.996306786     -53.2565755
8.66071              0.995185819      -176.67134    0.00219647294      148.911923    0.00219647294      148.911923      0.996306782     -53.2570815
8.66072              0.995185657     -176.672612     0.0021968318      148.912596     0.0021968318      148.912596      0.996306778     -53.2575876
8.66073              0.995185494     -176.673885    0.00219719088      148.913269    0.00219719088      148.913269      0.996306775     -53.2580937
8.66074              0.995185331     -176.675158    0.00219755019      148.913942    0.00219755019      148.913942      0.996306771     -53.2585998
8.66075              0.995185168     -176.676431    0.00219790972      148.914615    0.00219790972      148.914615      0.996306767     -53.2591059
8.66076              0.995185005     -176.677705    0.00219826948      148.915287    0.00219826948      148.915287      0.996306764      -53.259612
8.66077              0.995184841      -176.67898    0.00219862947       148.91596    0.00219862947       148.91596       0.99630676      -53.260118
8.66078              0.995184678     -176.680255    0.00219898969      148.916632    0.00219898969      148.916632      0.996306756     -53.2606241
8.66079              0.995184514      -176.68153    0.00219935014      148.917304    0.00219935014      148.917304      0.996306753     -53.2611302
8.6608                0.99518435     -176.682806    0.00219971082      148.917975    0.00219971082      148.917975      0.996306749     -53.2616363
8.66081              0.995184185     -176.684082    0.00220007172      148.918647    0.00220007172      148.918647      0.996306745     -53.2621424
8.66082              0.995184021     -176.685358    0.00220043286      148.919318    0.00220043286      148.919318      0.996306742     -53.2626485
8.66083              0.995183856     -176.686635    0.00220079422       148.91999    0.00220079422       148.91999      0.996306738     -53.2631546
8.66084              0.995183691     -176.687913    0.00220115581      148.920661    0.00220115581      148.920661      0.996306734     -53.2636606
8.66085              0.995183526     -176.689191    0.00220151764      148.921332    0.00220151764      148.921332       0.99630673     -53.2641667
8.66086              0.995183361     -176.690469    0.00220187969      148.922002    0.00220187969      148.922002      0.996306727     -53.2646728
8.66087              0.995183195     -176.691748    0.00220224198      148.922673    0.00220224198      148.922673      0.996306723     -53.2651789
8.66088               0.99518303     -176.693027    0.00220260449      148.923343    0.00220260449      148.923343      0.996306719      -53.265685
8.66089              0.995182864     -176.694307    0.00220296724      148.924014    0.00220296724      148.924014      0.996306716     -53.2661911
8.6609               0.995182698     -176.695587    0.00220333021      148.924684    0.00220333021      148.924684      0.996306712     -53.2666972
8.66091              0.995182531     -176.696867    0.00220369342      148.925354    0.00220369342      148.925354      0.996306708     -53.2672033
8.66092              0.995182365     -176.698148    0.00220405686      148.926023    0.00220405686      148.926023      0.996306705     -53.2677093
8.66093              0.995182198      -176.69943    0.00220442053      148.926693    0.00220442053      148.926693      0.996306701     -53.2682154
8.66094              0.995182031     -176.700712    0.00220478444      148.927362    0.00220478444      148.927362      0.996306697     -53.2687215
8.66095              0.995181864     -176.701994    0.00220514858      148.928031    0.00220514858      148.928031      0.996306693     -53.2692276
8.66096              0.995181697     -176.703277    0.00220551295        148.9287    0.00220551295        148.9287       0.99630669     -53.2697337
8.66097              0.995181529      -176.70456    0.00220587755      148.929369    0.00220587755      148.929369      0.996306686     -53.2702398
8.66098              0.995181361     -176.705844    0.00220624239      148.930038    0.00220624239      148.930038      0.996306682     -53.2707459
8.66099              0.995181193     -176.707128    0.00220660746      148.930706    0.00220660746      148.930706      0.996306678      -53.271252
8.661                0.995181025     -176.708412    0.00220697276      148.931374    0.00220697276      148.931374      0.996306675      -53.271758
8.66101              0.995180857     -176.709697     0.0022073383      148.932042     0.0022073383      148.932042      0.996306671     -53.2722641
8.66102              0.995180688     -176.710983    0.00220770407       148.93271    0.00220770407       148.93271      0.996306667     -53.2727702
8.66103              0.995180519     -176.712269    0.00220807008      148.933378    0.00220807008      148.933378      0.996306664     -53.2732763
8.66104               0.99518035     -176.713555    0.00220843632      148.934046    0.00220843632      148.934046       0.99630666     -53.2737824
8.66105              0.995180181     -176.714842     0.0022088028      148.934713     0.0022088028      148.934713      0.996306656     -53.2742885
8.66106              0.995180012     -176.716129    0.00220916951       148.93538    0.00220916951       148.93538      0.996306652     -53.2747946
8.66107              0.995179842     -176.717417    0.00220953646      148.936047    0.00220953646      148.936047      0.996306649     -53.2753007
8.66108              0.995179672     -176.718705    0.00220990364      148.936714    0.00220990364      148.936714      0.996306645     -53.2758068
8.66109              0.995179502     -176.719994    0.00221027106      148.937381    0.00221027106      148.937381      0.996306641     -53.2763129
8.6611               0.995179332     -176.721283    0.00221063872      148.938047    0.00221063872      148.938047      0.996306637      -53.276819
8.66111              0.995179161     -176.722573    0.00221100661      148.938714    0.00221100661      148.938714      0.996306634      -53.277325
8.66112              0.995178991     -176.723863    0.00221137474       148.93938    0.00221137474       148.93938       0.99630663     -53.2778311
8.66113               0.99517882     -176.725153    0.00221174311      148.940046    0.00221174311      148.940046      0.996306626     -53.2783372
8.66114              0.995178649     -176.726444    0.00221211172      148.940711    0.00221211172      148.940711      0.996306622     -53.2788433
8.66115              0.995178477     -176.727736    0.00221248056      148.941377    0.00221248056      148.941377      0.996306619     -53.2793494
8.66116              0.995178306     -176.729028    0.00221284964      148.942042    0.00221284964      148.942042      0.996306615     -53.2798555
8.66117              0.995178134      -176.73032    0.00221321896      148.942708    0.00221321896      148.942708      0.996306611     -53.2803616
8.66118              0.995177962     -176.731613    0.00221358852      148.943373    0.00221358852      148.943373      0.996306607     -53.2808677
8.66119               0.99517779     -176.732906    0.00221395832      148.944038    0.00221395832      148.944038      0.996306604     -53.2813738
8.6612               0.995177618       -176.7342    0.00221432836      148.944702    0.00221432836      148.944702        0.9963066     -53.2818799
8.66121              0.995177445     -176.735494    0.00221469863      148.945367    0.00221469863      148.945367      0.996306596      -53.282386
8.66122              0.995177272     -176.736788    0.00221506915      148.946031    0.00221506915      148.946031      0.996306592     -53.2828921
8.66123              0.995177099     -176.738083     0.0022154399      148.946695     0.0022154399      148.946695      0.996306588     -53.2833982
8.66124              0.995176926     -176.739379     0.0022158109      148.947359     0.0022158109      148.947359      0.996306585     -53.2839043
8.66125              0.995176753     -176.740675    0.00221618214      148.948023    0.00221618214      148.948023      0.996306581     -53.2844103
8.66126              0.995176579     -176.741972    0.00221655361      148.948687    0.00221655361      148.948687      0.996306577     -53.2849164
8.66127              0.995176405     -176.743268    0.00221692533       148.94935    0.00221692533       148.94935      0.996306573     -53.2854225
8.66128              0.995176231     -176.744566    0.00221729729      148.950013    0.00221729729      148.950013       0.99630657     -53.2859286
8.66129              0.995176057     -176.745864    0.00221766949      148.950676    0.00221766949      148.950676      0.996306566     -53.2864347
8.6613               0.995175882     -176.747162    0.00221804194      148.951339    0.00221804194      148.951339      0.996306562     -53.2869408
8.66131              0.995175707     -176.748461    0.00221841462      148.952002    0.00221841462      148.952002      0.996306558     -53.2874469
8.66132              0.995175532      -176.74976    0.00221878755      148.952665    0.00221878755      148.952665      0.996306554      -53.287953
8.66133              0.995175357      -176.75106    0.00221916072      148.953327    0.00221916072      148.953327      0.996306551     -53.2884591
8.66134              0.995175182      -176.75236    0.00221953414      148.953989    0.00221953414      148.953989      0.996306547     -53.2889652
8.66135              0.995175006     -176.753661    0.00221990779      148.954651    0.00221990779      148.954651      0.996306543     -53.2894713
8.66136               0.99517483     -176.754962    0.00222028169      148.955313    0.00222028169      148.955313      0.996306539     -53.2899774
8.66137              0.995174654     -176.756264    0.00222065584      148.955974    0.00222065584      148.955974      0.996306535     -53.2904835
8.66138              0.995174478     -176.757566    0.00222103023      148.956636    0.00222103023      148.956636      0.996306532     -53.2909896
8.66139              0.995174301     -176.758868    0.00222140486      148.957297    0.00222140486      148.957297      0.996306528     -53.2914957
8.6614               0.995174125     -176.760171    0.00222177974      148.957958    0.00222177974      148.957958      0.996306524     -53.2920018
8.66141              0.995173948     -176.761475    0.00222215486      148.958619    0.00222215486      148.958619       0.99630652     -53.2925079
8.66142               0.99517377     -176.762779    0.00222253023       148.95928    0.00222253023       148.95928      0.996306516      -53.293014
8.66143              0.995173593     -176.764083    0.00222290584       148.95994    0.00222290584       148.95994      0.996306513     -53.2935201
8.66144              0.995173415     -176.765388     0.0022232817      148.960601     0.0022232817      148.960601      0.996306509     -53.2940262
8.66145              0.995173238     -176.766693     0.0022236578      148.961261     0.0022236578      148.961261      0.996306505     -53.2945323
8.66146               0.99517306     -176.767999    0.00222403416      148.961921    0.00222403416      148.961921      0.996306501     -53.2950384
8.66147              0.995172881     -176.769306    0.00222441075       148.96258    0.00222441075       148.96258      0.996306497     -53.2955445
8.66148              0.995172703     -176.770612     0.0022247876       148.96324     0.0022247876       148.96324      0.996306493     -53.2960506
8.66149              0.995172524      -176.77192    0.00222516469      148.963899    0.00222516469      148.963899       0.99630649     -53.2965567
8.6615               0.995172345     -176.773228    0.00222554203      148.964559    0.00222554203      148.964559      0.996306486     -53.2970628
8.66151              0.995172166     -176.774536    0.00222591962      148.965218    0.00222591962      148.965218      0.996306482     -53.2975689
8.66152              0.995171986     -176.775845    0.00222629746      148.965876    0.00222629746      148.965876      0.996306478      -53.298075
8.66153              0.995171807     -176.777154    0.00222667554      148.966535    0.00222667554      148.966535      0.996306474     -53.2985811
8.66154              0.995171627     -176.778463    0.00222705387      148.967194    0.00222705387      148.967194       0.99630647     -53.2990872
8.66155              0.995171447     -176.779774    0.00222743245      148.967852    0.00222743245      148.967852      0.996306467     -53.2995933
8.66156              0.995171267     -176.781084    0.00222781128       148.96851    0.00222781128       148.96851      0.996306463     -53.3000994
8.66157              0.995171086     -176.782395    0.00222819036      148.969168    0.00222819036      148.969168      0.996306459     -53.3006055
8.66158              0.995170905     -176.783707    0.00222856969      148.969826    0.00222856969      148.969826      0.996306455     -53.3011116
8.66159              0.995170724     -176.785019    0.00222894927      148.970483    0.00222894927      148.970483      0.996306451     -53.3016177
8.6616               0.995170543     -176.786332     0.0022293291       148.97114     0.0022293291       148.97114      0.996306447     -53.3021238
8.66161              0.995170362     -176.787645    0.00222970919      148.971798    0.00222970919      148.971798      0.996306444     -53.3026299
8.66162               0.99517018     -176.788958    0.00223008952      148.972455    0.00223008952      148.972455       0.99630644      -53.303136
8.66163              0.995169998     -176.790272     0.0022304701      148.973111     0.0022304701      148.973111      0.996306436     -53.3036421
8.66164              0.995169816     -176.791587    0.00223085094      148.973768    0.00223085094      148.973768      0.996306432     -53.3041482
8.66165              0.995169633     -176.792902    0.00223123202      148.974424    0.00223123202      148.974424      0.996306428     -53.3046543
8.66166              0.995169451     -176.794217    0.00223161336      148.975081    0.00223161336      148.975081      0.996306424     -53.3051604
8.66167              0.995169268     -176.795533    0.00223199495      148.975737    0.00223199495      148.975737       0.99630642     -53.3056665
8.66168              0.995169085      -176.79685     0.0022323768      148.976393     0.0022323768      148.976393      0.996306417     -53.3061726
8.66169              0.995168902     -176.798167    0.00223275889      148.977048    0.00223275889      148.977048      0.996306413     -53.3066787
8.6617               0.995168718     -176.799484    0.00223314124      148.977704    0.00223314124      148.977704      0.996306409     -53.3071848
8.66171              0.995168534     -176.800802    0.00223352385      148.978359    0.00223352385      148.978359      0.996306405     -53.3076909
8.66172               0.99516835      -176.80212     0.0022339067      148.979014     0.0022339067      148.979014      0.996306401      -53.308197
8.66173              0.995168166     -176.803439    0.00223428981      148.979669    0.00223428981      148.979669      0.996306397     -53.3087031
8.66174              0.995167982     -176.804759    0.00223467318      148.980324    0.00223467318      148.980324      0.996306393     -53.3092093
8.66175              0.995167797     -176.806078     0.0022350568      148.980978     0.0022350568      148.980978      0.996306389     -53.3097154
8.66176              0.995167612     -176.807399    0.00223544068      148.981633    0.00223544068      148.981633      0.996306386     -53.3102215
8.66177              0.995167427      -176.80872    0.00223582481      148.982287    0.00223582481      148.982287      0.996306382     -53.3107276
8.66178              0.995167241     -176.810041    0.00223620919      148.982941    0.00223620919      148.982941      0.996306378     -53.3112337
8.66179              0.995167056     -176.811363    0.00223659384      148.983594    0.00223659384      148.983594      0.996306374     -53.3117398
8.6618                0.99516687     -176.812685    0.00223697874      148.984248    0.00223697874      148.984248       0.99630637     -53.3122459
8.66181              0.995166684     -176.814008    0.00223736389      148.984901    0.00223736389      148.984901      0.996306366      -53.312752
8.66182              0.995166498     -176.815331     0.0022377493      148.985555     0.0022377493      148.985555      0.996306362     -53.3132581
8.66183              0.995166311     -176.816655    0.00223813497      148.986208    0.00223813497      148.986208      0.996306358     -53.3137642
8.66184              0.995166124     -176.817979     0.0022385209       148.98686     0.0022385209       148.98686      0.996306354     -53.3142703
8.66185              0.995165937     -176.819304    0.00223890708      148.987513    0.00223890708      148.987513      0.996306351     -53.3147764
8.66186               0.99516575      -176.82063    0.00223929352      148.988165    0.00223929352      148.988165      0.996306347     -53.3152825
8.66187              0.995165562     -176.821955    0.00223968023      148.988818    0.00223968023      148.988818      0.996306343     -53.3157886
8.66188              0.995165374     -176.823282    0.00224006718       148.98947    0.00224006718       148.98947      0.996306339     -53.3162948
8.66189              0.995165186     -176.824608     0.0022404544      148.990122     0.0022404544      148.990122      0.996306335     -53.3168009
8.6619               0.995164998     -176.825936    0.00224084188      148.990773    0.00224084188      148.990773      0.996306331      -53.317307
8.66191               0.99516481     -176.827264    0.00224122962      148.991425    0.00224122962      148.991425      0.996306327     -53.3178131
8.66192              0.995164621     -176.828592    0.00224161761      148.992076    0.00224161761      148.992076      0.996306323     -53.3183192
8.66193              0.995164432     -176.829921    0.00224200587      148.992727    0.00224200587      148.992727      0.996306319     -53.3188253
8.66194              0.995164243      -176.83125    0.00224239439      148.993378    0.00224239439      148.993378      0.996306315     -53.3193314
8.66195              0.995164053      -176.83258    0.00224278317      148.994029    0.00224278317      148.994029      0.996306311     -53.3198375
8.66196              0.995163864      -176.83391    0.00224317221      148.994679    0.00224317221      148.994679      0.996306308     -53.3203436
8.66197              0.995163674     -176.835241    0.00224356151      148.995329    0.00224356151      148.995329      0.996306304     -53.3208497